 <VTKFile type="UnstructuredGrid" version="0.1" byte_order="BigEndian">
 <UnstructuredGrid>
 <Piece NumberOfPoints="        1343 " NumberOfCells="         160 ">
 <CellData Vectors="Electric_Field">
                                   <DataArray type="Float32" Name="Electric_Field" NumberOfComponents="3" Format="ascii">
    -0.16812E+06     0.10022E+05     0.19585E+11
     0.33670E+05     0.13794E+05     0.19727E+11
    -0.37754E+05     0.22148E+05    -0.19728E+11
    -0.25619E+06     0.24710E+05    -0.19584E+11
     0.39312E+05     0.68769E+04     0.19584E+11
    -0.58594E+04     0.78690E+04     0.19728E+11
    -0.41022E+05     0.33846E+05    -0.19729E+11
     0.21192E+04     0.27338E+05    -0.19583E+11
     0.11070E+05    -0.94031E+04     0.19585E+11
     0.24404E+05     0.15177E+03     0.19727E+11
     0.66364E+03     0.66001E+04    -0.19729E+11
    -0.84941E+04    -0.12848E+04    -0.19583E+11
     0.60074E+04    -0.16027E+03     0.19585E+11
     0.27067E+04     0.47985E+04     0.19727E+11
     0.47006E+04     0.17722E+04    -0.19729E+11
     0.72748E+04    -0.22730E+04    -0.19583E+11
     0.19109E+04     0.68681E+03     0.19585E+11
     0.19957E+04     0.34705E+03     0.19727E+11
    -0.88864E+03    -0.51280E+03    -0.19729E+11
    -0.19246E+04     0.22249E+02    -0.19583E+11
     0.20073E+04    -0.36410E+03     0.19585E+11
     0.18882E+04    -0.60868E+03     0.19727E+11
    -0.82816E+03    -0.29097E+02    -0.19729E+11
    -0.73949E+03    -0.75247E+02    -0.19583E+11
     0.29240E+03    -0.59326E+03     0.19585E+11
    -0.70821E+02    -0.70107E+03     0.19727E+11
     0.57335E+03    -0.25739E+03    -0.19729E+11
     0.63306E+03    -0.77190E+03    -0.19583E+11
     0.13469E+03    -0.19467E+03     0.19585E+11
     0.20211E+03    -0.21728E+03     0.19727E+11
    -0.45766E+03    -0.44670E+02    -0.19729E+11
    -0.51828E+03    -0.17296E+03    -0.19583E+11
     0.43110E+03    -0.13648E+03     0.19585E+11
     0.39904E+03    -0.20503E+02     0.19727E+11
    -0.23502E+03     0.66110E+02    -0.19729E+11
    -0.28635E+03     0.43010E+01    -0.19583E+11
     0.26889E+03     0.59588E+02     0.19585E+11
     0.18684E+03     0.79986E+02     0.19727E+11
    -0.29018E+02    -0.77406E+02    -0.19729E+11
     0.12383E+02    -0.70124E+02    -0.19583E+11
     0.35412E+02     0.77456E+02     0.19585E+11
     0.27031E+02     0.69007E+02     0.19727E+11
    -0.98510E+01    -0.77935E+02    -0.19729E+11
    -0.47823E+02    -0.48197E+02    -0.19583E+11
     0.85325E+02     0.18020E+02     0.19585E+11
     0.85166E+02     0.86456E+01     0.19727E+11
     0.17561E+02    -0.17918E+02    -0.19729E+11
     0.18733E+02    -0.59000E+01    -0.19583E+11
     0.30622E+02    -0.15893E+01     0.19585E+11
     0.22271E+02     0.45897E+00     0.19727E+11
     0.96765E+01    -0.81168E+01    -0.19729E+11
     0.12204E+02    -0.77540E+01    -0.19583E+11
     0.22802E+02    -0.14505E+01     0.19585E+11
     0.19138E+02    -0.16105E+01     0.19727E+11
     0.82483E+01     0.15470E+01    -0.19729E+11
     0.99376E+01     0.24939E+01    -0.19583E+11
     0.10521E+02    -0.12267E+01     0.19585E+11
     0.82625E+01    -0.12314E+01     0.19727E+11
     0.57154E+01     0.10210E+01    -0.19729E+11
     0.77436E+01     0.46873E+00    -0.19583E+11
     0.46100E+01    -0.26388E+00     0.19585E+11
     0.33285E+01    -0.12910E+00     0.19727E+11
     0.28054E+01     0.16129E+00    -0.19729E+11
     0.38745E+01     0.18277E+00    -0.19583E+11
     0.21862E+01     0.10557E-01     0.19585E+11
     0.15350E+01     0.81585E-01     0.19727E+11
     0.17528E+01     0.35012E-01    -0.19729E+11
     0.24408E+01     0.55953E-01    -0.19583E+11
     0.75953E+00     0.66104E-02     0.19585E+11
     0.39655E+00     0.29382E-01     0.19727E+11
     0.89594E+00    -0.22264E-01    -0.19729E+11
     0.11651E+01    -0.47160E-01    -0.19583E+11
     0.26846E+00     0.98413E-02     0.19585E+11
     0.14382E+00    -0.20111E-01     0.19727E+11
     0.18715E+00     0.35273E-01    -0.19729E+11
     0.37871E+00     0.35170E-01    -0.19583E+11
     0.18968E+00    -0.79861E-02     0.19585E+11
     0.12941E+00     0.52149E-01     0.19727E+11
     0.48550E-02    -0.61899E-01    -0.19729E+11
     0.71612E-01    -0.72115E-01    -0.19583E+11
    -0.15769E+00    -0.11875E+00     0.19585E+11
    -0.18675E+00    -0.39916E-01     0.19727E+11
     0.89693E-01    -0.76403E-01    -0.19729E+11
     0.10426E+00    -0.55586E-01    -0.19583E+11
     0.15894E+00    -0.99186E-01     0.19585E+11
     0.18759E+00    -0.93169E-01     0.19727E+11
    -0.14594E+00     0.36719E-02    -0.19729E+11
    -0.13547E+00     0.20377E-01    -0.19583E+11
    -0.11418E+00    -0.92447E-01     0.19585E+11
    -0.16445E+00    -0.50616E-01     0.19727E+11
     0.24595E+00    -0.23714E-01    -0.19729E+11
     0.23927E+00    -0.34836E-01    -0.19583E+11
     0.87680E-01    -0.72147E-01     0.19585E+11
     0.12567E+00    -0.45530E-01     0.19727E+11
    -0.15909E+00    -0.75776E-01    -0.19729E+11
    -0.16615E+00    -0.71848E-01    -0.19583E+11
     0.11636E+00    -0.26183E-01     0.19585E+11
     0.79648E-01    -0.12285E-01     0.19727E+11
     0.98213E-01    -0.95371E-01    -0.19729E+11
     0.99017E-01    -0.69386E-01    -0.19583E+11
    -0.49891E-01    -0.66128E-02     0.19585E+11
    -0.51430E-01    -0.76184E-02     0.19727E+11
    -0.11277E+00    -0.16235E+00    -0.19729E+11
    -0.11572E+00    -0.13307E+00    -0.19583E+11
     0.56926E-01     0.32262E-01     0.19585E+11
     0.76339E-01     0.10207E-01     0.19727E+11
     0.13642E+00    -0.16371E+00    -0.19729E+11
     0.12387E+00    -0.15954E+00    -0.19583E+11
    -0.22758E+00     0.36594E-01     0.19585E+11
    -0.24958E+00     0.38853E-01     0.19727E+11
    -0.11343E-01    -0.12352E+00    -0.19729E+11
     0.28402E-01    -0.13186E+00    -0.19583E+11
    -0.12159E+00     0.70957E-02     0.19585E+11
    -0.11345E+00     0.22213E-01     0.19727E+11
    -0.19849E-02    -0.84088E-01    -0.19729E+11
    -0.26869E-01    -0.11005E+00    -0.19583E+11
     0.10651E+00     0.95234E-02     0.19585E+11
     0.11930E+00     0.28739E-01     0.19727E+11
    -0.13546E+00    -0.82474E-01    -0.19729E+11
    -0.11448E+00    -0.95177E-01    -0.19583E+11
     0.98786E-01    -0.79268E-01     0.19585E+11
     0.10895E+00    -0.62425E-01     0.19727E+11
     0.16745E+00    -0.11028E+00    -0.19729E+11
     0.12181E+00    -0.90474E-01    -0.19583E+11
    -0.14707E+00    -0.71826E-01     0.19585E+11
    -0.22058E+00    -0.78493E-01     0.19727E+11
    -0.43280E-01    -0.12498E+00    -0.19729E+11
    -0.18102E-01    -0.96802E-01    -0.19583E+11
     0.17824E+00     0.51001E-02     0.19585E+11
     0.24698E+00     0.51151E-01     0.19727E+11
    -0.49537E-01    -0.77889E-01    -0.19729E+11
    -0.34654E-01    -0.75688E-01    -0.19583E+11
    -0.72278E-01    -0.35785E-01     0.19585E+11
    -0.80229E-01    -0.24509E-01     0.19727E+11
     0.58701E-01     0.70505E-01    -0.19729E+11
     0.74694E-01     0.36307E-01    -0.19583E+11
    -0.49872E-01    -0.10769E+00     0.19585E+11
    -0.68781E-01    -0.13959E+00     0.19727E+11
     0.17720E+00     0.79137E-01    -0.19729E+11
     0.14818E+00     0.55316E-01    -0.19583E+11
     0.21790E+00    -0.57137E-01     0.19585E+11
     0.22549E+00    -0.62628E-01     0.19727E+11
    -0.15096E+00    -0.25118E-01    -0.19729E+11
    -0.13671E+00     0.29279E-02    -0.19583E+11
    -0.15536E+00     0.75600E-01     0.19585E+11
    -0.16193E+00     0.65659E-01     0.19727E+11
    -0.25769E+00     0.17152E-01    -0.19729E+11
    -0.25383E+00     0.79369E-01    -0.19583E+11
     0.39818E+00     0.13335E+00     0.19585E+11
     0.39393E+00     0.15433E+00     0.19727E+11
     0.27103E+00     0.28539E-01    -0.19729E+11
     0.23420E+00     0.71194E-01    -0.19583E+11
    -0.96558E-01     0.18033E+00     0.19585E+11
    -0.91128E-01     0.16625E+00     0.19727E+11
    -0.27480E+00    -0.54048E-01    -0.19729E+11
    -0.24941E+00    -0.21345E-01    -0.19583E+11
    -0.55383E-01     0.10076E+00     0.19585E+11
    -0.44731E-01     0.10271E+00     0.19727E+11
     0.16434E+00    -0.16987E+00    -0.19729E+11
     0.15584E+00    -0.14414E+00    -0.19583E+11
 </DataArray>
                            <DataArray type="Float32" Name="Electric_Polarization" NumberOfComponents="3" Format="ascii">
    -0.18532E-04     0.11043E-05     0.21600E+01
     0.36788E-05     0.15125E-05     0.21600E+01
    -0.41538E-05     0.24286E-05    -0.21600E+01
    -0.28237E-04     0.27223E-05    -0.21600E+01
     0.43341E-05     0.75735E-06     0.21600E+01
    -0.63997E-06     0.86268E-06     0.21600E+01
    -0.44949E-05     0.37107E-05    -0.21600E+01
     0.23756E-06     0.30101E-05    -0.21600E+01
     0.12182E-05    -0.10357E-05     0.21600E+01
     0.26749E-05     0.15250E-07     0.21600E+01
     0.72327E-07     0.72353E-06    -0.21600E+01
    -0.93654E-06    -0.14265E-06    -0.21600E+01
     0.66191E-06    -0.18091E-07     0.21600E+01
     0.29702E-06     0.52581E-06     0.21600E+01
     0.51545E-06     0.19413E-06    -0.21600E+01
     0.80157E-06    -0.25082E-06    -0.21600E+01
     0.21057E-06     0.75505E-07     0.21600E+01
     0.21869E-06     0.38244E-07     0.21600E+01
    -0.97448E-07    -0.56179E-07    -0.21600E+01
    -0.21212E-06     0.24902E-08    -0.21600E+01
     0.22110E-06    -0.40104E-07     0.21600E+01
     0.20703E-06    -0.66699E-07     0.21600E+01
    -0.90814E-07    -0.31979E-08    -0.21600E+01
    -0.81420E-07    -0.82873E-08    -0.21600E+01
     0.32277E-07    -0.65319E-07     0.21600E+01
    -0.77824E-08    -0.76875E-07     0.21600E+01
     0.62873E-07    -0.28216E-07    -0.21600E+01
     0.69724E-07    -0.85104E-07    -0.21600E+01
     0.14858E-07    -0.21424E-07     0.21600E+01
     0.22127E-07    -0.23837E-07     0.21600E+01
    -0.50184E-07    -0.48983E-08    -0.21600E+01
    -0.57087E-07    -0.19070E-07    -0.21600E+01
     0.47495E-07    -0.15025E-07     0.21600E+01
     0.43743E-07    -0.22725E-08     0.21600E+01
    -0.25769E-07     0.72498E-08    -0.21600E+01
    -0.31545E-07     0.46222E-09    -0.21600E+01
     0.29632E-07     0.65648E-08     0.21600E+01
     0.20481E-07     0.87651E-08     0.21600E+01
    -0.31786E-08    -0.84855E-08    -0.21600E+01
     0.13675E-08    -0.77237E-08    -0.21600E+01
     0.39035E-08     0.85342E-08     0.21600E+01
     0.29618E-08     0.75643E-08     0.21600E+01
    -0.10842E-08    -0.85433E-08    -0.21600E+01
    -0.52690E-08    -0.53053E-08    -0.21600E+01
     0.93981E-08     0.19861E-08     0.21600E+01
     0.93375E-08     0.94796E-09     0.21600E+01
     0.19249E-08    -0.19641E-08    -0.21600E+01
     0.20639E-08    -0.64832E-09    -0.21600E+01
     0.33737E-08    -0.17490E-09     0.21600E+01
     0.24421E-08     0.49867E-10     0.21600E+01
     0.10610E-08    -0.89006E-09    -0.21600E+01
     0.13445E-08    -0.85382E-09    -0.21600E+01
     0.25120E-08    -0.15974E-09     0.21600E+01
     0.20983E-08    -0.17657E-09     0.21600E+01
     0.90425E-09     0.16963E-09    -0.21600E+01
     0.10949E-08     0.27481E-09    -0.21600E+01
     0.11590E-08    -0.13509E-09     0.21600E+01
     0.90602E-09    -0.13503E-09     0.21600E+01
     0.62671E-09     0.11193E-09    -0.21600E+01
     0.85313E-09     0.51552E-10    -0.21600E+01
     0.50786E-09    -0.29058E-10     0.21600E+01
     0.36503E-09    -0.14181E-10     0.21600E+01
     0.30764E-09     0.17702E-10    -0.21600E+01
     0.42685E-09     0.20115E-10    -0.21600E+01
     0.24084E-09     0.11539E-11     0.21600E+01
     0.16836E-09     0.89435E-11     0.21600E+01
     0.19222E-09     0.38585E-11    -0.21600E+01
     0.26889E-09     0.61457E-11    -0.21600E+01
     0.83673E-10     0.72107E-12     0.21600E+01
     0.43516E-10     0.32251E-11     0.21600E+01
     0.98258E-10    -0.24229E-11    -0.21600E+01
     0.12834E-09    -0.52168E-11    -0.21600E+01
     0.29573E-10     0.10794E-11     0.21600E+01
     0.15782E-10    -0.21961E-11     0.21600E+01
     0.20534E-10     0.38815E-11    -0.21600E+01
     0.41726E-10     0.38590E-11    -0.21600E+01
     0.20893E-10    -0.88630E-12     0.21600E+01
     0.14197E-10     0.57155E-11     0.21600E+01
     0.54274E-12    -0.67682E-11    -0.21600E+01
     0.78873E-11    -0.79632E-11    -0.21600E+01
    -0.17369E-10    -0.13091E-10     0.21600E+01
    -0.20470E-10    -0.43764E-11     0.21600E+01
     0.98372E-11    -0.83554E-11    -0.21600E+01
     0.11482E-10    -0.61409E-11    -0.21600E+01
     0.17504E-10    -0.10935E-10     0.21600E+01
     0.20566E-10    -0.10206E-10     0.21600E+01
    -0.15997E-10     0.41948E-12    -0.21600E+01
    -0.14922E-10     0.22297E-11    -0.21600E+01
    -0.12573E-10    -0.10194E-10     0.21600E+01
    -0.18027E-10    -0.55442E-11     0.21600E+01
     0.26963E-10    -0.25840E-11    -0.21600E+01
     0.26356E-10    -0.38551E-11    -0.21600E+01
     0.96558E-11    -0.79565E-11     0.21600E+01
     0.13774E-10    -0.49859E-11     0.21600E+01
    -0.17441E-10    -0.82880E-11    -0.21600E+01
    -0.18302E-10    -0.79333E-11    -0.21600E+01
     0.12817E-10    -0.28916E-11     0.21600E+01
     0.87377E-11    -0.13413E-11     0.21600E+01
     0.10769E-10    -0.10440E-10    -0.21600E+01
     0.10905E-10    -0.76549E-11    -0.21600E+01
    -0.54930E-11    -0.73649E-12     0.21600E+01
    -0.56408E-11    -0.82701E-12     0.21600E+01
    -0.12365E-10    -0.17783E-10    -0.21600E+01
    -0.12745E-10    -0.14669E-10    -0.21600E+01
     0.62670E-11     0.35473E-11     0.21600E+01
     0.83700E-11     0.11285E-11     0.21600E+01
     0.14957E-10    -0.17930E-10    -0.21600E+01
     0.13641E-10    -0.17590E-10    -0.21600E+01
    -0.25062E-10     0.40262E-11     0.21600E+01
    -0.27365E-10     0.42639E-11     0.21600E+01
    -0.12429E-11    -0.13522E-10    -0.21600E+01
     0.31336E-11    -0.14546E-10    -0.21600E+01
    -0.13395E-10     0.77406E-12     0.21600E+01
    -0.12438E-10     0.24407E-11     0.21600E+01
    -0.21827E-12    -0.91998E-11    -0.21600E+01
    -0.29626E-11    -0.12145E-10    -0.21600E+01
     0.11732E-10     0.10407E-11     0.21600E+01
     0.13078E-10     0.31564E-11     0.21600E+01
    -0.14852E-10    -0.90231E-11    -0.21600E+01
    -0.12606E-10    -0.10505E-10    -0.21600E+01
     0.10879E-10    -0.87412E-11     0.21600E+01
     0.11945E-10    -0.68364E-11     0.21600E+01
     0.18358E-10    -0.12069E-10    -0.21600E+01
     0.13410E-10    -0.99843E-11    -0.21600E+01
    -0.16194E-10    -0.79208E-11     0.21600E+01
    -0.24179E-10    -0.85954E-11     0.21600E+01
    -0.47457E-11    -0.13682E-10    -0.21600E+01
    -0.19894E-11    -0.10678E-10    -0.21600E+01
     0.19628E-10     0.55522E-12     0.21600E+01
     0.27074E-10     0.56080E-11     0.21600E+01
    -0.54285E-11    -0.85204E-11    -0.21600E+01
    -0.38172E-11    -0.83557E-11    -0.21600E+01
    -0.79601E-11    -0.39508E-11     0.21600E+01
    -0.87961E-11    -0.26796E-11     0.21600E+01
     0.64379E-11     0.77453E-11    -0.21600E+01
     0.82274E-11     0.39779E-11    -0.21600E+01
    -0.54928E-11    -0.11869E-10     0.21600E+01
    -0.75387E-11    -0.15293E-10     0.21600E+01
     0.19424E-10     0.86953E-11    -0.21600E+01
     0.16320E-10     0.60695E-11    -0.21600E+01
     0.24001E-10    -0.62984E-11     0.21600E+01
     0.24721E-10    -0.68606E-11     0.21600E+01
    -0.16550E-10    -0.27266E-11    -0.21600E+01
    -0.15057E-10     0.29890E-12    -0.21600E+01
    -0.17113E-10     0.83209E-11     0.21600E+01
    -0.17752E-10     0.72063E-11     0.21600E+01
    -0.28249E-10     0.19046E-11    -0.21600E+01
    -0.27960E-10     0.87270E-11    -0.21600E+01
     0.43854E-10     0.14679E-10     0.21600E+01
     0.43195E-10     0.16927E-10     0.21600E+01
     0.29711E-10     0.31490E-11    -0.21600E+01
     0.25795E-10     0.78276E-11    -0.21600E+01
    -0.10634E-10     0.19858E-10     0.21600E+01
    -0.99933E-11     0.18234E-10     0.21600E+01
    -0.30130E-10    -0.59035E-11    -0.21600E+01
    -0.27466E-10    -0.23687E-11    -0.21600E+01
    -0.61013E-11     0.11089E-10     0.21600E+01
    -0.49047E-11     0.11269E-10     0.21600E+01
     0.18022E-10    -0.18599E-10    -0.21600E+01
     0.17160E-10    -0.15897E-10    -0.21600E+01
 </DataArray>
 </CellData>
 <PointData Scalars="Elec_Pot" Vectors="displacement">
                                         <DataArray type="Float32" Name="Elec_Pot" NumberOfComponents="1" Format="ascii">
  0.000000000000000E+000  0.000000000000000E+000   181358.263112210     
   181358.881279331        364000.000000000        364000.000000000     
   181344.225230971        181343.771680042       0.000000000000000E+000
  0.000000000000000E+000  0.000000000000000E+000  0.000000000000000E+000
   181338.571268079        181338.765070426        364000.000000000     
   364000.000000000        181322.183138568        181322.455478870     
  0.000000000000000E+000  0.000000000000000E+000  0.000000000000000E+000
  0.000000000000000E+000   181338.124501385        181338.290416919     
   364000.000000000        364000.000000000        181322.023583606     
   181322.056075238       0.000000000000000E+000  0.000000000000000E+000
  0.000000000000000E+000  0.000000000000000E+000   181338.891929623     
   181338.969619084        364000.000000000        364000.000000000     
   181322.641048771        181322.634418523       0.000000000000000E+000
  0.000000000000000E+000  0.000000000000000E+000  0.000000000000000E+000
   181339.129214442        181339.145194154        364000.000000000     
   364000.000000000        181322.685994671        181322.691561201     
  0.000000000000000E+000  0.000000000000000E+000  0.000000000000000E+000
  0.000000000000000E+000   181339.183671613        181339.187635592     
   364000.000000000        364000.000000000        181322.693308285     
   181322.698038328       0.000000000000000E+000  0.000000000000000E+000
  0.000000000000000E+000  0.000000000000000E+000   181339.196258758     
   181339.197113932        364000.000000000        364000.000000000     
   181322.694725332        181322.695291949       0.000000000000000E+000
  0.000000000000000E+000  0.000000000000000E+000  0.000000000000000E+000
   181339.199836980        181339.200234667        364000.000000000     
   364000.000000000        181322.696225667        181322.695370719     
  0.000000000000000E+000  0.000000000000000E+000  0.000000000000000E+000
  0.000000000000000E+000   181339.201065807        181339.201383720     
   364000.000000000        364000.000000000        181322.696659820     
   181322.696603690       0.000000000000000E+000  0.000000000000000E+000
  0.000000000000000E+000  0.000000000000000E+000   181339.201698361     
   181339.201728183        364000.000000000        364000.000000000     
   181322.697081650        181322.697106464       0.000000000000000E+000
  0.000000000000000E+000  0.000000000000000E+000  0.000000000000000E+000
   181339.202016726        181339.202010526        364000.000000000     
   364000.000000000        181322.697335357        181322.697348987     
  0.000000000000000E+000  0.000000000000000E+000  0.000000000000000E+000
  0.000000000000000E+000   181339.202101926        181339.202103084     
   364000.000000000        364000.000000000        181322.697486581     
   181322.697476491       0.000000000000000E+000  0.000000000000000E+000
  0.000000000000000E+000  0.000000000000000E+000   181339.202142447     
   181339.202141258        364000.000000000        364000.000000000     
   181322.697526731        181322.697533267       0.000000000000000E+000
  0.000000000000000E+000  0.000000000000000E+000  0.000000000000000E+000
   181339.202155271        181339.202151700        364000.000000000     
   364000.000000000        181322.697552388        181322.697559355     
  0.000000000000000E+000  0.000000000000000E+000  0.000000000000000E+000
  0.000000000000000E+000   181339.202152498        181339.202152681     
   364000.000000000        364000.000000000        181322.697559828     
   181322.697561022       0.000000000000000E+000  0.000000000000000E+000
  0.000000000000000E+000  0.000000000000000E+000   181339.202156041     
   181339.202155377        364000.000000000        364000.000000000     
   181322.697557534        181322.697559263       0.000000000000000E+000
  0.000000000000000E+000  0.000000000000000E+000  0.000000000000000E+000
   181339.202151447        181339.202151994        364000.000000000     
   364000.000000000        181322.697564538        181322.697561492     
  0.000000000000000E+000  0.000000000000000E+000  0.000000000000000E+000
  0.000000000000000E+000   181339.202145830        181339.202158544     
   364000.000000000        364000.000000000        181322.697564089     
   181322.697558782       0.000000000000000E+000  0.000000000000000E+000
  0.000000000000000E+000  0.000000000000000E+000   181339.202146744     
   181339.202152798        364000.000000000        364000.000000000     
   181322.697566260        181322.697559993       0.000000000000000E+000
  0.000000000000000E+000  0.000000000000000E+000  0.000000000000000E+000
   181339.202147590        181339.202154839        364000.000000000     
   364000.000000000        181322.697562480        181322.697564100     
  0.000000000000000E+000  0.000000000000000E+000  0.000000000000000E+000
  0.000000000000000E+000   181339.202152679        181339.202150043     
   364000.000000000        364000.000000000        181322.697564115     
   181322.697561763       0.000000000000000E+000  0.000000000000000E+000
  0.000000000000000E+000  0.000000000000000E+000   181339.202153544     
   181339.202151726        364000.000000000        364000.000000000     
   181322.697562863        181322.697562288       0.000000000000000E+000
  0.000000000000000E+000  0.000000000000000E+000  0.000000000000000E+000
   181339.202148778        181339.202148728        364000.000000000     
   364000.000000000        181322.697562728        181322.697558196     
  0.000000000000000E+000  0.000000000000000E+000  0.000000000000000E+000
  0.000000000000000E+000   181339.202146808        181339.202152473     
   364000.000000000        364000.000000000        181322.697566796     
   181322.697560771       0.000000000000000E+000  0.000000000000000E+000
  0.000000000000000E+000  0.000000000000000E+000   181339.202148644     
   181339.202152958        364000.000000000        364000.000000000     
   181322.697560151        181322.697557459       0.000000000000000E+000
  0.000000000000000E+000  0.000000000000000E+000  0.000000000000000E+000
   181339.202147685        181339.202152294        364000.000000000     
   364000.000000000        181322.697561664        181322.697564415     
  0.000000000000000E+000  0.000000000000000E+000  0.000000000000000E+000
  0.000000000000000E+000   181339.202150292        181339.202151865     
   364000.000000000        364000.000000000        181322.697558928     
   181322.697561352       0.000000000000000E+000  0.000000000000000E+000
  0.000000000000000E+000  0.000000000000000E+000   181339.202147455     
   181339.202152586        364000.000000000        364000.000000000     
   181322.697562988        181322.697563737       0.000000000000000E+000
  0.000000000000000E+000  0.000000000000000E+000  0.000000000000000E+000
   181339.202147066        181339.202151981        364000.000000000     
   364000.000000000        181322.697557923        181322.697560437     
  0.000000000000000E+000  0.000000000000000E+000  0.000000000000000E+000
  0.000000000000000E+000   181339.202147414        181339.202152164     
   364000.000000000        364000.000000000        181322.697563624     
   181322.697563503       0.000000000000000E+000  0.000000000000000E+000
  0.000000000000000E+000  0.000000000000000E+000   181339.202148559     
   181339.202153795        364000.000000000        364000.000000000     
   181322.697557604        181322.697564166       0.000000000000000E+000
  0.000000000000000E+000  0.000000000000000E+000  0.000000000000000E+000
   181339.202145629        181339.202145074        364000.000000000     
   364000.000000000        181322.697559058        181322.697558601     
  0.000000000000000E+000  0.000000000000000E+000  0.000000000000000E+000
  0.000000000000000E+000   181339.202152203        181339.202159919     
   364000.000000000        364000.000000000        181322.697563577     
   181322.697560540       0.000000000000000E+000  0.000000000000000E+000
  0.000000000000000E+000  0.000000000000000E+000   181339.202144815     
   181339.202147152        364000.000000000        364000.000000000     
   181322.697560608        181322.697561944       0.000000000000000E+000
  0.000000000000000E+000  0.000000000000000E+000  0.000000000000000E+000
   181339.202151368        181339.202155335        364000.000000000     
   364000.000000000        181322.697560656        181322.697562429     
  0.000000000000000E+000  0.000000000000000E+000  0.000000000000000E+000
  0.000000000000000E+000   181339.202149135        181339.202149028     
   364000.000000000        364000.000000000        181322.697562599     
   181322.697562205       0.000000000000000E+000  0.000000000000000E+000
  0.000000000000000E+000  0.000000000000000E+000   181339.202147300     
   181339.202154062        364000.000000000        364000.000000000     
   181322.697562731        181322.697560646       0.000000000000000E+000
  0.000000000000000E+000  0.000000000000000E+000  0.000000000000000E+000
   181339.202148623        181339.202150371        364000.000000000     
   364000.000000000        181322.697563839        181322.697557827     
  0.000000000000000E+000  0.000000000000000E+000  0.000000000000000E+000
  0.000000000000000E+000   181339.202149207        181339.202155168     
   364000.000000000        364000.000000000        181322.697566637     
   181322.697563037       0.000000000000000E+000  0.000000000000000E+000
  0.000000000000000E+000  0.000000000000000E+000   181339.202149048     
   181339.202147310        364000.000000000        364000.000000000     
   181322.697560341        181322.697561546       0.000000000000000E+000
  0.000000000000000E+000  0.000000000000000E+000  0.000000000000000E+000
   181339.202151336        181339.202147308        364000.000000000     
   364000.000000000        181322.697558155        181322.697562456     
  0.000000000000000E+000  0.000000000000000E+000   90502.0335474070     
   181338.482798668        90502.0738739506       0.000000000000000E+000
  0.000000000000000E+000   90531.9015757362        181358.346902241     
   90531.5743598672       0.000000000000000E+000  0.000000000000000E+000
   181348.552020963        181348.635750642        272505.832666972     
   364000.000000000        272505.953315519        272504.119087108     
   364000.000000000        272503.751437880        364000.000000000     
   364000.000000000        272495.551286228        181322.214835475     
   272495.657298664        272495.056481228        181344.319028116     
   272495.197685050        181332.930128429        181332.938526271     
   90487.5583775532       0.000000000000000E+000   90487.8074545879     
   90518.8409868769       0.000000000000000E+000   90519.1244386757     
  0.000000000000000E+000  0.000000000000000E+000   90505.9710198273     
   181338.117898680        90506.0376472680       0.000000000000000E+000
  0.000000000000000E+000  0.000000000000000E+000   181341.459399339     
   181341.453320923        272502.567973914        364000.000000000     
   272502.661641285        364000.000000000        364000.000000000     
   272492.497779516        181322.098066011        272492.528036675     
   181324.813162662        181324.763926887        90491.8045014498     
  0.000000000000000E+000   90491.7614098214       0.000000000000000E+000
  0.000000000000000E+000   90505.3957103481        181338.961002085     
   90505.4406281352       0.000000000000000E+000  0.000000000000000E+000
  0.000000000000000E+000   181341.633868114        181341.671811112     
   272503.623398274        364000.000000000        272503.664446424     
   364000.000000000        364000.000000000        272493.433132691     
   181322.632637715        272493.425707348        181325.024404377     
   181325.035366041        90491.0910854131       0.000000000000000E+000
   90491.1017407820       0.000000000000000E+000  0.000000000000000E+000
   90505.7280455587        181339.123931716        90505.7339128506     
  0.000000000000000E+000  0.000000000000000E+000  0.000000000000000E+000
   181341.151491150        181341.146748070        272503.590514489     
   364000.000000000        272503.596311157        364000.000000000     
   364000.000000000        272493.312517682        181322.688242754     
   272493.315693119        181324.647200821        181324.661922900     
   90491.3285196785       0.000000000000000E+000   90491.3331532403     
  0.000000000000000E+000  0.000000000000000E+000   90505.7095718512     
   181339.187061597        90505.7118148216       0.000000000000000E+000
  0.000000000000000E+000  0.000000000000000E+000   181341.172898013     
   181341.171392381        272503.654469597        364000.000000000     
   272503.655290901        364000.000000000        364000.000000000     
   272493.348118514        181322.696469311        272493.350695705     
   181324.696463276        181324.701642697        90491.2858411183     
  0.000000000000000E+000   90491.2892011734       0.000000000000000E+000
  0.000000000000000E+000   90505.7275730907        181339.196217573     
   90505.7276581160       0.000000000000000E+000  0.000000000000000E+000
  0.000000000000000E+000   181341.152320538        181341.151599835     
   272503.652177013        364000.000000000        272503.652572674     
   364000.000000000        364000.000000000        272493.342076313     
   181322.695253488        272493.342265504        181324.690483714     
   181324.690646647        90491.2977684746       0.000000000000000E+000
   90491.2978854783       0.000000000000000E+000  0.000000000000000E+000