 <VTKFile type="UnstructuredGrid" version="0.1" byte_order="BigEndian">
 <UnstructuredGrid>
 <Piece NumberOfPoints="        1343 " NumberOfCells="         160 ">
 <CellData Vectors="Electric_Field">
                                   <DataArray type="Float32" Name="Electric_Field" NumberOfComponents="3" Format="ascii">
    -0.31890E+06     0.11309E+05     0.24482E+11
    -0.93469E+05     0.31471E+04     0.24658E+11
    -0.14569E+05    -0.92035E+04    -0.24660E+11
    -0.28129E+06    -0.10939E+05    -0.24480E+11
     0.49101E+05     0.12659E+05     0.24481E+11
    -0.98999E+04     0.10061E+05     0.24659E+11
    -0.31545E+05     0.18905E+04    -0.24661E+11
     0.31810E+05     0.42281E+04    -0.24479E+11
     0.15582E+05     0.11830E+04     0.24481E+11
     0.32577E+05     0.12183E+04     0.24659E+11
     0.33561E+05    -0.57914E+04    -0.24661E+11
     0.16438E+05    -0.50634E+04    -0.24479E+11
     0.12169E+05    -0.15689E+04     0.24481E+11
     0.88711E+04     0.70959E+03     0.24659E+11
    -0.12086E+05    -0.49346E+03    -0.24661E+11
    -0.95966E+04     0.68466E+03    -0.24479E+11
     0.24502E+04    -0.97610E+02     0.24481E+11
     0.28352E+04    -0.13714E+04     0.24659E+11
    -0.44566E+03     0.25743E+03    -0.24661E+11
    -0.18233E+04    -0.18245E+03    -0.24479E+11
     0.23328E+04     0.38350E+03     0.24481E+11
     0.17789E+04     0.51777E+03     0.24659E+11
    -0.74461E+03     0.17254E+02    -0.24661E+11
    -0.84530E+03    -0.15845E+03    -0.24479E+11
     0.16229E+04     0.17855E+02     0.24481E+11
     0.14763E+04     0.16004E+02     0.24659E+11
    -0.25095E+03    -0.17554E+03    -0.24661E+11
    -0.61717E+03    -0.22016E+03    -0.24479E+11
     0.17153E+04    -0.52657E+03     0.24481E+11
     0.13855E+04    -0.41908E+03     0.24659E+11
     0.26052E+03    -0.91827E+02    -0.24661E+11
     0.24622E+03     0.24262E+02    -0.24479E+11
     0.58570E+03    -0.11982E+02     0.24481E+11
     0.59688E+03    -0.44366E+02     0.24659E+11
     0.14308E+03     0.66469E+02    -0.24661E+11
    -0.12581E+03     0.10020E+03    -0.24479E+11
     0.43538E+03     0.87146E+02     0.24481E+11
     0.27602E+03     0.60615E+02     0.24659E+11
    -0.11891E+03    -0.54159E+02    -0.24661E+11
    -0.36335E+02    -0.36353E+02    -0.24479E+11
     0.19195E+03     0.21970E+02     0.24481E+11
     0.16921E+03     0.29985E+02     0.24659E+11
     0.44500E+02    -0.11320E+02    -0.24661E+11
     0.22679E+02    -0.48379E+01    -0.24479E+11
     0.11637E+03    -0.26545E+01     0.24481E+11
     0.99200E+02    -0.40207E+00     0.24659E+11
     0.30030E+02     0.75762E+01    -0.24661E+11
     0.37092E+02     0.80402E+01    -0.24479E+11
     0.55624E+02     0.39474E+00     0.24481E+11
     0.46725E+02     0.14213E+01     0.24659E+11
     0.21473E+02     0.17265E+01    -0.24661E+11
     0.25710E+02     0.13947E+00    -0.24479E+11
     0.23359E+02     0.58995E+00     0.24481E+11
     0.18158E+02     0.75900E+00     0.24659E+11
     0.13549E+02     0.13592E-01    -0.24661E+11
     0.18149E+02     0.12701E+00    -0.24479E+11
     0.10592E+02     0.12160E+00     0.24481E+11
     0.75583E+01     0.65039E-01     0.24659E+11
     0.65110E+01     0.24144E+00    -0.24661E+11
     0.89762E+01     0.10172E+00    -0.24479E+11
     0.32246E+01     0.21796E-01     0.24481E+11
     0.20052E+01    -0.36156E-01     0.24659E+11
     0.28215E+01     0.13944E+00    -0.24661E+11
     0.40885E+01     0.85986E-01    -0.24479E+11
     0.13032E+01    -0.10852E+00     0.24481E+11
     0.79602E+00     0.76477E-01     0.24659E+11
     0.10541E+01     0.34149E-01    -0.24661E+11
     0.16149E+01    -0.20673E-01    -0.24479E+11
     0.48309E+00    -0.18415E-01     0.24481E+11
     0.20844E+00     0.79394E-01     0.24659E+11
     0.41499E+00     0.20032E-01    -0.24661E+11
     0.58376E+00     0.44644E-01    -0.24479E+11
     0.67346E-01     0.56061E-01     0.24481E+11
     0.62553E-01     0.49666E-01     0.24659E+11
     0.14829E+00     0.46047E-01    -0.24661E+11
     0.17650E+00     0.49804E-01    -0.24479E+11
     0.27906E+00    -0.14242E+00     0.24481E+11
     0.31174E+00    -0.82133E-01     0.24659E+11
     0.71823E-01     0.13370E+00    -0.24661E+11
     0.15741E+00     0.12225E+00    -0.24479E+11
    -0.48857E+00     0.12009E+00     0.24481E+11
    -0.57235E+00     0.79701E-01     0.24659E+11
     0.34595E+00     0.15081E+00    -0.24661E+11
     0.28693E+00     0.10942E+00    -0.24479E+11
     0.19120E+00     0.28228E+00     0.24481E+11
     0.26019E+00     0.24609E+00     0.24659E+11
    -0.35749E+00     0.94133E-01    -0.24661E+11
    -0.32222E+00     0.77822E-01    -0.24479E+11
     0.81516E+00     0.89548E-01     0.24481E+11
     0.82035E+00     0.14977E+00     0.24659E+11
     0.23656E+00     0.21717E-01    -0.24661E+11
     0.22959E+00     0.64262E-01    -0.24479E+11
    -0.48856E+00    -0.74633E-01     0.24481E+11
    -0.42915E+00    -0.29733E-01     0.24659E+11
    -0.31220E+00     0.12936E+00    -0.24661E+11
    -0.30188E+00     0.14026E+00    -0.24479E+11
     0.19917E+00    -0.29211E+00     0.24481E+11
     0.61059E-01    -0.22320E+00     0.24659E+11
    -0.17572E-01     0.22651E-02    -0.24661E+11
    -0.61238E-01     0.49306E-01    -0.24479E+11
    -0.67940E+00    -0.25560E+00     0.24481E+11
    -0.69999E+00    -0.40299E+00     0.24659E+11
    -0.37879E+00    -0.20207E+00    -0.24661E+11
    -0.32312E+00    -0.12043E+00    -0.24479E+11
     0.41324E+00    -0.18823E+00     0.24481E+11
     0.58846E+00    -0.28787E+00     0.24659E+11
     0.28590E+00    -0.22552E+00    -0.24661E+11
     0.26207E+00    -0.19735E+00    -0.24479E+11
     0.20094E+00    -0.10053E+00     0.24481E+11
     0.29578E-01    -0.26840E-01     0.24659E+11
     0.23949E-01    -0.12173E+00    -0.24661E+11
     0.17267E-01    -0.11479E+00    -0.24479E+11
    -0.71531E+00     0.13871E+00     0.24481E+11
    -0.60062E+00    -0.29938E-01     0.24659E+11
    -0.64230E-01     0.59157E-01    -0.24661E+11
    -0.80484E-01     0.66439E-01    -0.24479E+11
     0.48331E+00     0.32743E+00     0.24481E+11
     0.34229E+00     0.18388E+00     0.24659E+11
     0.16439E+00     0.11670E+00    -0.24661E+11
     0.20892E+00     0.10439E+00    -0.24479E+11
     0.49764E-01     0.27864E+00     0.24481E+11
     0.14599E+00     0.29375E+00     0.24659E+11
     0.13843E+00    -0.16952E-01    -0.24661E+11
     0.11329E+00    -0.12582E-01    -0.24479E+11
     0.55521E+00    -0.24230E-01     0.24481E+11
     0.61006E+00     0.50405E-01     0.24659E+11
     0.69754E-01    -0.24370E-01    -0.24661E+11
     0.45886E-01    -0.42202E-01    -0.24479E+11
    -0.53185E+00    -0.49981E-01     0.24481E+11
    -0.66588E+00    -0.20279E-01     0.24659E+11
    -0.19155E+00     0.13382E+00    -0.24661E+11
    -0.15160E+00     0.13001E+00    -0.24479E+11
    -0.33881E-01    -0.98657E-01     0.24481E+11
     0.13696E+00    -0.17453E+00     0.24659E+11
     0.15772E+00     0.13039E+00    -0.24661E+11
     0.15485E+00     0.11361E+00    -0.24479E+11
     0.62063E+00    -0.13359E+00     0.24481E+11
     0.49812E+00    -0.92915E-01     0.24659E+11
    -0.48625E+00    -0.13624E+00    -0.24661E+11
    -0.47649E+00    -0.14792E+00    -0.24479E+11
    -0.11600E+01    -0.27121E+00     0.24481E+11
    -0.11878E+01    -0.26818E-01     0.24659E+11
    -0.43426E+00    -0.90698E-01    -0.24661E+11
    -0.49414E+00    -0.85601E-01    -0.24479E+11
     0.57718E+00    -0.37401E+00     0.24481E+11
     0.71967E+00    -0.26992E+00     0.24659E+11
     0.51318E+00     0.98477E-01    -0.24661E+11
     0.54066E+00     0.34508E-01    -0.24479E+11
    -0.21251E-01    -0.12209E+00     0.24481E+11
    -0.19765E+00    -0.11261E+00     0.24659E+11
    -0.18857E-01     0.82126E-01    -0.24661E+11
    -0.12681E-01     0.66899E-02    -0.24479E+11
    -0.17552E+00    -0.25073E+00     0.24481E+11
     0.11986E-01    -0.21942E+00     0.24659E+11
     0.14134E+00    -0.39061E-02    -0.24661E+11
     0.15488E+00     0.50337E-01    -0.24479E+11
     0.26612E+00    -0.40778E+00     0.24481E+11
     0.14185E+00    -0.23498E+00     0.24659E+11
    -0.16460E-01     0.61868E-01    -0.24661E+11
    -0.10768E+00     0.10171E+00    -0.24479E+11
 </DataArray>
                            <DataArray type="Float32" Name="Electric_Polarization" NumberOfComponents="3" Format="ascii">
    -0.28114E-04     0.99580E-06     0.21600E+01
    -0.82093E-05     0.27779E-06     0.21600E+01
    -0.12909E-05    -0.80832E-06    -0.21600E+01
    -0.24804E-04    -0.96319E-06    -0.21600E+01
     0.43314E-05     0.11167E-05     0.21600E+01
    -0.86653E-06     0.88152E-06     0.21600E+01
    -0.27631E-05     0.16593E-06    -0.21600E+01
     0.28070E-05     0.37272E-06    -0.21600E+01
     0.13713E-05     0.10476E-06     0.21600E+01
     0.28572E-05     0.10633E-06     0.21600E+01
     0.29426E-05    -0.50787E-06    -0.21600E+01
     0.14473E-05    -0.44616E-06    -0.21600E+01
     0.10724E-05    -0.13827E-06     0.21600E+01
     0.77841E-06     0.61990E-07     0.21600E+01
    -0.10598E-05    -0.43297E-07    -0.21600E+01
    -0.84548E-06     0.60495E-07    -0.21600E+01
     0.21592E-06    -0.85218E-08     0.21600E+01
     0.24862E-06    -0.12022E-06     0.21600E+01
    -0.39184E-07     0.22576E-07    -0.21600E+01
    -0.16074E-06    -0.16128E-07    -0.21600E+01
     0.20566E-06     0.33795E-07     0.21600E+01
     0.15599E-06     0.45395E-07     0.21600E+01
    -0.65311E-07     0.15155E-08    -0.21600E+01
    -0.74494E-07    -0.13986E-07    -0.21600E+01
     0.14306E-06     0.15596E-08     0.21600E+01
     0.12945E-06     0.14177E-08     0.21600E+01
    -0.22027E-07    -0.15393E-07    -0.21600E+01
    -0.54410E-07    -0.19409E-07    -0.21600E+01
     0.15121E-06    -0.46411E-07     0.21600E+01
     0.12151E-06    -0.36758E-07     0.21600E+01
     0.22854E-07    -0.80489E-08    -0.21600E+01
     0.21690E-07     0.21471E-08    -0.21600E+01
     0.51616E-07    -0.10637E-08     0.21600E+01
     0.52345E-07    -0.38798E-08     0.21600E+01
     0.12534E-07     0.58356E-08    -0.21600E+01
    -0.11103E-07     0.88278E-08    -0.21600E+01
     0.38385E-07     0.76750E-08     0.21600E+01
     0.24206E-07     0.53236E-08     0.21600E+01
    -0.10429E-07    -0.47518E-08    -0.21600E+01
    -0.31921E-08    -0.31994E-08    -0.21600E+01
     0.16921E-07     0.19338E-08     0.21600E+01
     0.14837E-07     0.26313E-08     0.21600E+01
     0.39000E-08    -0.99318E-09    -0.21600E+01
     0.19988E-08    -0.42514E-09    -0.21600E+01
     0.10257E-07    -0.23424E-09     0.21600E+01
     0.87004E-08    -0.35181E-10     0.21600E+01
     0.26334E-08     0.66441E-09    -0.21600E+01
     0.32697E-08     0.70861E-09    -0.21600E+01
     0.49022E-08     0.34797E-10     0.21600E+01
     0.40985E-08     0.12453E-09     0.21600E+01
     0.18833E-08     0.15131E-09    -0.21600E+01
     0.22661E-08     0.12205E-10    -0.21600E+01
     0.20587E-08     0.51964E-10     0.21600E+01
     0.15929E-08     0.66574E-10     0.21600E+01
     0.11885E-08     0.12085E-11    -0.21600E+01
     0.15996E-08     0.11189E-10    -0.21600E+01
     0.93346E-09     0.10689E-10     0.21600E+01
     0.66314E-09     0.57372E-11     0.21600E+01
     0.57121E-09     0.21171E-10    -0.21600E+01
     0.79110E-09     0.89510E-11    -0.21600E+01
     0.28417E-09     0.19072E-11     0.21600E+01
     0.17599E-09    -0.31512E-11     0.21600E+01
     0.24757E-09     0.12218E-10    -0.21600E+01
     0.36031E-09     0.75822E-11    -0.21600E+01
     0.11483E-09    -0.95850E-11     0.21600E+01
     0.69874E-10     0.67096E-11     0.21600E+01
     0.92506E-10     0.29878E-11    -0.21600E+01
     0.14232E-09    -0.18210E-11    -0.21600E+01
     0.42573E-10    -0.16372E-11     0.21600E+01
     0.18309E-10     0.69671E-11     0.21600E+01
     0.36421E-10     0.17573E-11    -0.21600E+01
     0.51436E-10     0.39366E-11    -0.21600E+01
     0.59316E-11     0.49316E-11     0.21600E+01
     0.54899E-11     0.43653E-11     0.21600E+01
     0.13010E-10     0.40359E-11    -0.21600E+01
     0.15551E-10     0.43919E-11    -0.21600E+01
     0.24581E-10    -0.12558E-10     0.21600E+01
     0.27348E-10    -0.72018E-11     0.21600E+01
     0.63078E-11     0.11720E-10    -0.21600E+01
     0.13872E-10     0.10777E-10    -0.21600E+01
    -0.43038E-10     0.10583E-10     0.21600E+01
    -0.50204E-10     0.69940E-11     0.21600E+01
     0.30339E-10     0.13222E-10    -0.21600E+01
     0.25280E-10     0.96424E-11    -0.21600E+01
     0.16835E-10     0.24864E-10     0.21600E+01
     0.22826E-10     0.21599E-10     0.21600E+01
    -0.31350E-10     0.82541E-11    -0.21600E+01
    -0.28393E-10     0.68575E-11    -0.21600E+01
     0.71829E-10     0.78738E-11     0.21600E+01
     0.71953E-10     0.13146E-10     0.21600E+01
     0.20745E-10     0.19040E-11    -0.21600E+01
     0.20233E-10     0.56686E-11    -0.21600E+01
    -0.43059E-10    -0.65894E-11     0.21600E+01
    -0.37640E-10    -0.26000E-11     0.21600E+01
    -0.27381E-10     0.11343E-10    -0.21600E+01
    -0.26600E-10     0.12364E-10    -0.21600E+01
     0.17565E-10    -0.25763E-10     0.21600E+01
     0.53563E-11    -0.19561E-10     0.21600E+01
    -0.15469E-11     0.19891E-12    -0.21600E+01
    -0.53955E-11     0.43502E-11    -0.21600E+01
    -0.59861E-10    -0.22536E-10     0.21600E+01
    -0.61400E-10    -0.35316E-10     0.21600E+01
    -0.33216E-10    -0.17719E-10    -0.21600E+01
    -0.28473E-10    -0.10605E-10    -0.21600E+01
     0.36401E-10    -0.16602E-10     0.21600E+01
     0.51607E-10    -0.25221E-10     0.21600E+01
     0.25071E-10    -0.19778E-10    -0.21600E+01
     0.23094E-10    -0.17388E-10    -0.21600E+01
     0.17715E-10    -0.88750E-11     0.21600E+01
     0.26052E-11    -0.23459E-11     0.21600E+01
     0.21012E-11    -0.10676E-10    -0.21600E+01
     0.15199E-11    -0.10114E-10    -0.21600E+01
    -0.63036E-10     0.12226E-10     0.21600E+01
    -0.52688E-10    -0.26095E-11     0.21600E+01
    -0.56337E-11     0.51885E-11    -0.21600E+01
    -0.70938E-11     0.58553E-11    -0.21600E+01
     0.42599E-10     0.28849E-10     0.21600E+01
     0.30028E-10     0.16148E-10     0.21600E+01
     0.14419E-10     0.10232E-10    -0.21600E+01
     0.18413E-10     0.92010E-11    -0.21600E+01
     0.43710E-11     0.24540E-10     0.21600E+01
     0.12808E-10     0.25777E-10     0.21600E+01
     0.12144E-10    -0.14882E-11    -0.21600E+01
     0.99774E-11    -0.11067E-11    -0.21600E+01
     0.48926E-10    -0.21568E-11     0.21600E+01
     0.53500E-10     0.44343E-11     0.21600E+01
     0.61122E-11    -0.21369E-11    -0.21600E+01
     0.40463E-11    -0.37214E-11    -0.21600E+01
    -0.46865E-10    -0.44158E-11     0.21600E+01
    -0.58390E-10    -0.17705E-11     0.21600E+01
    -0.16796E-10     0.11734E-10    -0.21600E+01
    -0.13358E-10     0.11459E-10    -0.21600E+01
    -0.29867E-11    -0.87050E-11     0.21600E+01
     0.11995E-10    -0.15288E-10     0.21600E+01
     0.13832E-10     0.11430E-10    -0.21600E+01
     0.13646E-10     0.10016E-10    -0.21600E+01
     0.54688E-10    -0.11787E-10     0.21600E+01
     0.43704E-10    -0.81383E-11     0.21600E+01
    -0.42647E-10    -0.11949E-10    -0.21600E+01
    -0.41986E-10    -0.13036E-10    -0.21600E+01
    -0.10220E-09    -0.23928E-10     0.21600E+01
    -0.10419E-09    -0.23498E-11     0.21600E+01
    -0.38090E-10    -0.79531E-11    -0.21600E+01
    -0.43546E-10    -0.75440E-11    -0.21600E+01
     0.50852E-10    -0.32981E-10     0.21600E+01
     0.63114E-10    -0.23661E-10     0.21600E+01
     0.45009E-10     0.86306E-11    -0.21600E+01
     0.47645E-10     0.30396E-11    -0.21600E+01
    -0.18649E-11    -0.10772E-10     0.21600E+01
    -0.17324E-10    -0.98651E-11     0.21600E+01
    -0.16500E-11     0.71972E-11    -0.21600E+01
    -0.11207E-11     0.58611E-12    -0.21600E+01
    -0.15479E-10    -0.22112E-10     0.21600E+01
     0.10428E-11    -0.19231E-10     0.21600E+01
     0.12394E-10    -0.33831E-12    -0.21600E+01
     0.13652E-10     0.44378E-11    -0.21600E+01
     0.23454E-10    -0.35950E-10     0.21600E+01
     0.12451E-10    -0.20611E-10     0.21600E+01
    -0.14456E-11     0.54259E-11    -0.21600E+01
    -0.94979E-11     0.89679E-11    -0.21600E+01
 </DataArray>
 </CellData>
 <PointData Scalars="Elec_Pot" Vectors="displacement">
                                         <DataArray type="Float32" Name="Elec_Pot" NumberOfComponents="1" Format="ascii">
  0.000000000000000E+000  0.000000000000000E+000   226702.262484123     
   226700.870230230        455000.000000000        455000.000000000     
   226679.488373316        226679.095611622       0.000000000000000E+000
  0.000000000000000E+000  0.000000000000000E+000  0.000000000000000E+000
   226676.060080730        226676.372357625        455000.000000000     
   455000.000000000        226651.041610145        226650.626486029     
  0.000000000000000E+000  0.000000000000000E+000  0.000000000000000E+000
  0.000000000000000E+000   226675.349063811        226675.600699153     
   455000.000000000        455000.000000000        226650.627945577     
   226650.394053553       0.000000000000000E+000  0.000000000000000E+000
  0.000000000000000E+000  0.000000000000000E+000   226676.626595241     
   226676.624590267        455000.000000000        455000.000000000     
   226651.248643697        226651.259993867       0.000000000000000E+000
  0.000000000000000E+000  0.000000000000000E+000  0.000000000000000E+000
   226676.931374294        226676.923646398        455000.000000000     
   455000.000000000        226651.328874419        226651.331311064     
  0.000000000000000E+000  0.000000000000000E+000  0.000000000000000E+000
  0.000000000000000E+000   226677.031140675        226677.030953695     
   455000.000000000        455000.000000000        226651.334347710     
   226651.334627538       0.000000000000000E+000  0.000000000000000E+000
  0.000000000000000E+000  0.000000000000000E+000   226677.056133459     
   226677.056400766        455000.000000000        455000.000000000     
   226651.335987680        226651.335100235       0.000000000000000E+000
  0.000000000000000E+000  0.000000000000000E+000  0.000000000000000E+000
   226677.066525320        226677.066427375        455000.000000000     
   455000.000000000        226651.337770908        226651.337219788     
  0.000000000000000E+000  0.000000000000000E+000  0.000000000000000E+000
  0.000000000000000E+000   226677.069769894        226677.070009422     
   455000.000000000        455000.000000000        226651.339787029     
   226651.339819435       0.000000000000000E+000  0.000000000000000E+000
  0.000000000000000E+000  0.000000000000000E+000   226677.071261966     
   226677.071292716        455000.000000000        455000.000000000     
   226651.340890513        226651.340927433       0.000000000000000E+000
  0.000000000000000E+000  0.000000000000000E+000  0.000000000000000E+000
   226677.071862891        226677.071839640        455000.000000000     
   455000.000000000        226651.341540811        226651.341508193     
  0.000000000000000E+000  0.000000000000000E+000  0.000000000000000E+000
  0.000000000000000E+000   226677.072025017        226677.072010249     
   455000.000000000        455000.000000000        226651.341785677     
   226651.341770196       0.000000000000000E+000  0.000000000000000E+000
  0.000000000000000E+000  0.000000000000000E+000   226677.072026516     
   226677.072045940        455000.000000000        455000.000000000     
   226651.341879240        226651.341925769       0.000000000000000E+000
  0.000000000000000E+000  0.000000000000000E+000  0.000000000000000E+000
   226677.072058202        226677.072070089        455000.000000000     
   455000.000000000        226651.341869735        226651.341898926     
  0.000000000000000E+000  0.000000000000000E+000  0.000000000000000E+000
  0.000000000000000E+000   226677.072049401        226677.072089962     
   455000.000000000        455000.000000000        226651.341917502     
   226651.341898960       0.000000000000000E+000  0.000000000000000E+000
  0.000000000000000E+000  0.000000000000000E+000   226677.072033913     
   226677.072053774        455000.000000000        455000.000000000     
   226651.341922634        226651.341957251       0.000000000000000E+000
  0.000000000000000E+000  0.000000000000000E+000  0.000000000000000E+000
   226677.072031716        226677.072060052        455000.000000000     
   455000.000000000        226651.341947629        226651.341896589     
  0.000000000000000E+000  0.000000000000000E+000  0.000000000000000E+000
  0.000000000000000E+000   226677.072049672        226677.072085651     
   455000.000000000        455000.000000000        226651.341916623     
   226651.341893413       0.000000000000000E+000  0.000000000000000E+000
  0.000000000000000E+000  0.000000000000000E+000   226677.072028756     
   226677.072059902        455000.000000000        455000.000000000     
   226651.341856282        226651.341889912       0.000000000000000E+000
  0.000000000000000E+000  0.000000000000000E+000  0.000000000000000E+000
   226677.072052886        226677.072038223        455000.000000000     
   455000.000000000        226651.341911541        226651.341899521     
  0.000000000000000E+000  0.000000000000000E+000  0.000000000000000E+000
  0.000000000000000E+000   226677.072049490        226677.072042414     
   455000.000000000        455000.000000000        226651.341941106     
   226651.341920029       0.000000000000000E+000  0.000000000000000E+000
  0.000000000000000E+000  0.000000000000000E+000   226677.072061934     
   226677.072043805        455000.000000000        455000.000000000     
   226651.341867805        226651.341909461       0.000000000000000E+000
  0.000000000000000E+000  0.000000000000000E+000  0.000000000000000E+000
   226677.072062954        226677.072056070        455000.000000000     
   455000.000000000        226651.341897752        226651.341923266     
  0.000000000000000E+000  0.000000000000000E+000  0.000000000000000E+000
  0.000000000000000E+000   226677.072046747        226677.072087987     
   455000.000000000        455000.000000000        226651.341931697     
   226651.341952921       0.000000000000000E+000  0.000000000000000E+000
  0.000000000000000E+000  0.000000000000000E+000   226677.072052523     
   226677.072073452        455000.000000000        455000.000000000     
   226651.341918790        226651.341886236       0.000000000000000E+000
  0.000000000000000E+000  0.000000000000000E+000  0.000000000000000E+000
   226677.072027520        226677.072056021        455000.000000000     
   455000.000000000        226651.341925119        226651.341878481     
  0.000000000000000E+000  0.000000000000000E+000  0.000000000000000E+000
  0.000000000000000E+000   226677.072056800        226677.072064249     
   455000.000000000        455000.000000000        226651.341897898     
   226651.341885150       0.000000000000000E+000  0.000000000000000E+000
  0.000000000000000E+000  0.000000000000000E+000   226677.072058960     
   226677.072057740        455000.000000000        455000.000000000     
   226651.341921300        226651.341880158       0.000000000000000E+000
  0.000000000000000E+000  0.000000000000000E+000  0.000000000000000E+000
   226677.072059455        226677.072055731        455000.000000000     
   455000.000000000        226651.341903280        226651.341912379     
  0.000000000000000E+000  0.000000000000000E+000  0.000000000000000E+000
  0.000000000000000E+000   226677.072036121        226677.072059570     
   455000.000000000        455000.000000000        226651.341904259     
   226651.341902213       0.000000000000000E+000  0.000000000000000E+000
  0.000000000000000E+000  0.000000000000000E+000   226677.072064958     
   226677.072056106        455000.000000000        455000.000000000     
   226651.341950251        226651.341879233       0.000000000000000E+000
  0.000000000000000E+000  0.000000000000000E+000  0.000000000000000E+000
   226677.072024627        226677.072065107        455000.000000000     
   455000.000000000        226651.341923551        226651.341929857     
  0.000000000000000E+000  0.000000000000000E+000  0.000000000000000E+000
  0.000000000000000E+000   226677.072039054        226677.072063720     
   455000.000000000        455000.000000000        226651.341893049     
   226651.341910022       0.000000000000000E+000  0.000000000000000E+000
  0.000000000000000E+000  0.000000000000000E+000   226677.072050729     
   226677.072058480        455000.000000000        455000.000000000     
   226651.341889890        226651.341913279       0.000000000000000E+000
  0.000000000000000E+000  0.000000000000000E+000  0.000000000000000E+000
   226677.072062813        226677.072029037        455000.000000000     
   455000.000000000        226651.341915080        226651.341948061     
  0.000000000000000E+000  0.000000000000000E+000  0.000000000000000E+000
  0.000000000000000E+000   226677.072050336        226677.072067953     
   455000.000000000        455000.000000000        226651.341909309     
   226651.341963850       0.000000000000000E+000  0.000000000000000E+000
  0.000000000000000E+000  0.000000000000000E+000   226677.072026179     
   226677.072035706        455000.000000000        455000.000000000     
   226651.341834558        226651.341877484       0.000000000000000E+000
  0.000000000000000E+000  0.000000000000000E+000  0.000000000000000E+000
   226677.072037389        226677.072076113        455000.000000000     
   455000.000000000        226651.341926963        226651.341940937     
  0.000000000000000E+000  0.000000000000000E+000  0.000000000000000E+000
  0.000000000000000E+000   226677.072036121        226677.072060630     
   455000.000000000        455000.000000000        226651.341895347     
   226651.341893076       0.000000000000000E+000  0.000000000000000E+000
  0.000000000000000E+000  0.000000000000000E+000   226677.072042012     
   226677.072072335        455000.000000000        455000.000000000     
   226651.341919114        226651.341927991       0.000000000000000E+000
  0.000000000000000E+000  0.000000000000000E+000  0.000000000000000E+000
   226677.072036312        226677.072055660        455000.000000000     
   455000.000000000        226651.341923355        226651.341905474     
  0.000000000000000E+000  0.000000000000000E+000   113130.169212888     
   226676.253690578        113130.099753051       0.000000000000000E+000
  0.000000000000000E+000   113167.375718018        226700.426598679     
   113167.682519322       0.000000000000000E+000  0.000000000000000E+000
   226689.958225324        226689.437290065        340634.244486653     
   455000.000000000        340634.484700308        340631.891923725     
   455000.000000000        340632.293295842        455000.000000000     
   455000.000000000        340618.509351526        226650.989224005     
   340618.472114627        340618.290772263        226678.772330663     
   340618.702612963        226665.702758685        226665.712580811     
   113108.039284464       0.000000000000000E+000   113107.745963918     
   113147.956390951       0.000000000000000E+000   113148.101856239     
  0.000000000000000E+000  0.000000000000000E+000   113135.083631080     
   226675.526506785        113135.148360912       0.000000000000000E+000
  0.000000000000000E+000  0.000000000000000E+000   226681.135310461     
   226680.578413165        340630.205164839        455000.000000000     
   340630.205339127        455000.000000000        455000.000000000     
   340614.716959737        226650.605174077        340614.524317563     
   226655.032147081        226655.210501975        113113.105665860     
  0.000000000000000E+000   113113.124917364       0.000000000000000E+000
  0.000000000000000E+000   113134.514212483        226676.655175259     
   113134.512567611       0.000000000000000E+000  0.000000000000000E+000
  0.000000000000000E+000   226681.411620543        226681.279912081     
   340631.694970585        455000.000000000        340631.643327991     
   455000.000000000        455000.000000000        340615.758824063     
   226651.275863658        340615.787184659        226655.540139332     
   226655.634037155        113112.226841146       0.000000000000000E+000
   113112.237061480       0.000000000000000E+000  0.000000000000000E+000
   113134.948076511        226676.929042719        113134.943780774     
  0.000000000000000E+000  0.000000000000000E+000  0.000000000000000E+000
   226680.813790539        226680.797307197        340631.636529696     
   455000.000000000        340631.635928594        455000.000000000     
   455000.000000000        340615.638610920        226651.325494321     
   340615.636401343        226655.150254315        226655.156751584     
   113112.534117431       0.000000000000000E+000   113112.534741426     
  0.000000000000000E+000  0.000000000000000E+000   113134.947020914     
   226677.031618962        113134.947293018       0.000000000000000E+000
  0.000000000000000E+000  0.000000000000000E+000   226680.854829965     
   226680.851028847        340631.738688699        455000.000000000     
   340631.737242496        455000.000000000        455000.000000000     
   340615.680924750        226651.335626274        340615.681324890     
   226655.226352442        226655.227904340        113112.478097831     
  0.000000000000000E+000   113112.478464384       0.000000000000000E+000
  0.000000000000000E+000   113134.976972233        226677.056319779     
   113134.977112388       0.000000000000000E+000  0.000000000000000E+000
  0.000000000000000E+000   226680.846907124        226680.845573820     
   340631.741735074        455000.000000000        340631.741995816     
   455000.000000000        455000.000000000        340615.674195332     
   226651.335264633        340615.673575146        226655.223184270     
   226655.223664123        113112.493303834       0.000000000000000E+000
   113112.492972491       0.000000000000000E+000  0.000000000000000E+000