 <VTKFile type="UnstructuredGrid" version="0.1" byte_order="BigEndian">
 <UnstructuredGrid>
 <Piece NumberOfPoints="        1343 " NumberOfCells="         160 ">
 <CellData Vectors="Electric_Field">
                                   <DataArray type="Float32" Name="Electric_Field" NumberOfComponents="3" Format="ascii">
    -0.16080E+06     0.66038E+04     0.97928E+10
    -0.54291E+05     0.22261E+04     0.98632E+10
    -0.61649E+05     0.10583E+05    -0.98638E+10
    -0.16169E+06     0.39428E+04    -0.97922E+10
     0.13308E+05    -0.31821E+04     0.97921E+10
    -0.70398E+04    -0.59587E+04     0.98639E+10
    -0.35641E+04    -0.52008E+04    -0.98644E+10
     0.19814E+05    -0.40555E+03    -0.97916E+10
    -0.58424E+04    -0.46762E+04     0.97921E+10
    -0.12598E+04    -0.60486E+04     0.98639E+10
     0.38531E+04     0.19307E+04    -0.98644E+10
    -0.45744E+04     0.20317E+04    -0.97916E+10
     0.17575E+04    -0.31229E+04     0.97921E+10
     0.85969E+03    -0.33188E+04     0.98639E+10
    -0.49383E+03     0.23931E+04    -0.98644E+10
     0.10019E+04     0.25790E+04    -0.97916E+10
    -0.19421E+04    -0.82542E+02     0.97921E+10
    -0.18877E+04    -0.31741E+03     0.98639E+10
    -0.21604E+03     0.18251E+04    -0.98644E+10
    -0.75928E+03     0.19571E+04    -0.97916E+10
     0.68019E+03    -0.45404E+01     0.97921E+10
     0.99624E+03     0.33995E+03     0.98639E+10
     0.26030E+03     0.84470E+03    -0.98644E+10
     0.42947E+03     0.88896E+03    -0.97916E+10
    -0.21609E+03     0.18531E+03     0.97921E+10
    -0.24934E+03     0.39537E+02     0.98639E+10
    -0.20387E+03     0.11384E+03    -0.98644E+10
    -0.25208E+03     0.17135E+03    -0.97916E+10
    -0.11424E+03     0.16559E+03     0.97921E+10
    -0.16745E+03     0.36281E+02     0.98639E+10
     0.18638E+03    -0.24126E+03    -0.98644E+10
     0.21593E+03    -0.21497E+03    -0.97916E+10
    -0.33812E+02    -0.43718E+03     0.97921E+10
    -0.36251E+02    -0.41894E+03     0.98639E+10
    -0.14594E+03     0.13736E+03    -0.98644E+10
    -0.15492E+03     0.19128E+03    -0.97916E+10
     0.56292E+02    -0.18433E+02     0.97921E+10
     0.63307E+02    -0.52381E+02     0.98639E+10
     0.51592E+02     0.39583E+02    -0.98644E+10
     0.57260E+02     0.56010E+02    -0.97916E+10
    -0.42312E+02    -0.38207E+02     0.97921E+10
    -0.65947E+02    -0.39707E+02     0.98639E+10
    -0.10327E+03     0.35974E+02    -0.98644E+10
    -0.95097E+02     0.30668E+02    -0.97916E+10
     0.11094E+03     0.12686E+03     0.97921E+10
     0.11307E+03     0.14273E+03     0.98639E+10
     0.10101E+03    -0.35241E+02    -0.98644E+10
     0.10720E+03    -0.41850E+02    -0.97916E+10
     0.31966E+01     0.78576E+02     0.97921E+10
     0.17154E+01     0.80208E+02     0.98639E+10
     0.17533E+01    -0.63909E+02    -0.98644E+10
     0.49882E+01    -0.60276E+02    -0.97916E+10
     0.18097E+01     0.24623E+02     0.97921E+10
     0.61559E+01     0.28940E+02     0.98639E+10
    -0.36062E+00    -0.74226E+00    -0.98644E+10
    -0.15138E+02    -0.27914E+00    -0.97916E+10
     0.40484E+02     0.15336E+00     0.97921E+10
     0.39521E+02     0.56361E+01     0.98639E+10
     0.86211E+01     0.94889E+01    -0.98644E+10
     0.88938E+01     0.68439E+01    -0.97916E+10
    -0.10894E+02    -0.20696E+01     0.97921E+10
    -0.10464E+02     0.29200E+01     0.98639E+10
    -0.90133E+01    -0.39124E+01    -0.98644E+10
    -0.99386E+01    -0.55104E+01    -0.97916E+10
    -0.56260E+01     0.71288E+01     0.97921E+10
    -0.37569E+01     0.75347E+01     0.98639E+10
    -0.17649E+01    -0.20562E+01    -0.98644E+10
    -0.24588E+01    -0.13653E+01    -0.97916E+10
     0.94324E-01     0.12887E+00     0.97921E+10
    -0.13587E+01     0.92813E+00     0.98639E+10
    -0.34643E+01     0.68907E+00    -0.98644E+10
    -0.25183E+01     0.10996E+01    -0.97916E+10
     0.14692E+01     0.13833E+01     0.97921E+10
     0.10370E+01     0.11348E+01     0.98639E+10
     0.20629E+01     0.55133E+00    -0.98644E+10
     0.22094E+01     0.55172E+00    -0.97916E+10
     0.22193E+01     0.70191E+00     0.97921E+10
     0.22508E+01     0.56501E+00     0.98639E+10
     0.55184E+00     0.25970E+00    -0.98644E+10
     0.64359E+00     0.11040E+00    -0.97916E+10
    -0.94643E-01     0.68850E-01     0.97921E+10
    -0.17049E+00     0.48531E-01     0.98639E+10
     0.18090E+00    -0.91794E-01    -0.98644E+10
     0.20634E+00    -0.12774E+00    -0.97916E+10
     0.93094E-01     0.10611E+00     0.97921E+10
     0.28677E-01     0.27645E-01     0.98639E+10
    -0.28851E+00    -0.24392E+00    -0.98644E+10
    -0.19723E+00    -0.22223E+00    -0.97916E+10
    -0.12047E+00    -0.34605E-01     0.97921E+10
    -0.11997E+00    -0.92907E-01     0.98639E+10
     0.23103E+00    -0.31376E+00    -0.98644E+10
     0.17281E+00    -0.26236E+00    -0.97916E+10
     0.77371E-01    -0.26752E-01     0.97921E+10
     0.93684E-01     0.25321E-01     0.98639E+10
     0.31942E-01    -0.11310E+00    -0.98644E+10
     0.10022E+00    -0.19891E+00    -0.97916E+10
    -0.10575E+00     0.23652E-01     0.97921E+10
    -0.19381E+00    -0.14982E-01     0.98639E+10
     0.87916E-02     0.10057E+00    -0.98644E+10
     0.17684E-01    -0.28740E-01    -0.97916E+10
     0.17463E+00     0.29498E-01     0.97921E+10
     0.22022E+00     0.12426E-01     0.98639E+10
    -0.28931E-01     0.12256E-03    -0.98644E+10
    -0.32441E-01     0.56175E-01    -0.97916E+10
     0.58196E-01    -0.36281E-01     0.97921E+10
     0.69850E-01    -0.21719E-01     0.98639E+10
     0.68326E+00    -0.15079E-01    -0.98644E+10
     0.61709E+00    -0.21543E-01    -0.97916E+10
    -0.57985E+00    -0.29014E-01     0.97921E+10
    -0.60110E+00    -0.32280E-01     0.98639E+10
    -0.75946E+00    -0.10145E+00    -0.98644E+10
    -0.70559E+00    -0.13097E+00    -0.97916E+10
     0.14334E+00     0.59987E-01     0.97921E+10
     0.16687E+00     0.43810E-01     0.98639E+10
    -0.60779E-01    -0.17363E+00    -0.98644E+10
    -0.75680E-01    -0.42759E-01    -0.97916E+10
     0.30856E+00     0.66266E-01     0.97921E+10
     0.28628E+00     0.73332E-01     0.98639E+10
    -0.29715E+00    -0.16504E+00    -0.98644E+10
    -0.27707E+00    -0.12516E+00    -0.97916E+10
     0.15123E+00    -0.15795E-01     0.97921E+10
     0.16552E+00     0.32942E-01     0.98639E+10
     0.14580E+00     0.10732E+00    -0.98644E+10
     0.16629E+00    -0.80276E-03    -0.97916E+10
    -0.13269E+00    -0.61836E-01     0.97921E+10
    -0.13908E+00    -0.28201E-01     0.98639E+10
     0.29594E+00     0.29812E+00    -0.98644E+10
     0.32037E+00     0.35479E+00    -0.97916E+10
    -0.36514E-03    -0.41996E-01     0.97921E+10
    -0.91925E-02    -0.35470E-01     0.98639E+10
     0.20105E+00     0.12357E+00    -0.98644E+10
     0.13085E+00     0.16486E+00    -0.97916E+10
     0.18873E+00    -0.40654E-01     0.97921E+10
     0.19566E+00    -0.47291E-01     0.98639E+10
    -0.17886E+00     0.10850E+00    -0.98644E+10
    -0.17251E+00     0.10195E+00    -0.97916E+10
     0.20878E+00     0.10585E-01     0.97921E+10
     0.19832E+00    -0.12438E-01     0.98639E+10
     0.61063E-01     0.19600E+00    -0.98644E+10
     0.11031E+00     0.23547E+00    -0.97916E+10
    -0.44603E+00     0.69751E-01     0.97921E+10
    -0.45175E+00     0.28008E-01     0.98639E+10
    -0.34355E+00     0.10578E+00    -0.98644E+10
    -0.40409E+00     0.89570E-01    -0.97916E+10
     0.18295E+00    -0.48559E-01     0.97921E+10
     0.19265E+00    -0.27330E-01     0.98639E+10
     0.20459E+00    -0.17423E+00    -0.98644E+10
     0.28125E+00    -0.17569E+00    -0.97916E+10
     0.58532E-01    -0.64284E-01     0.97921E+10
     0.59476E-01    -0.71816E-01     0.98639E+10
     0.24903E+00    -0.11767E+00    -0.98644E+10
     0.15109E+00    -0.76083E-01    -0.97916E+10
    -0.27392E+00    -0.15438E-01     0.97921E+10
    -0.24129E+00    -0.10179E+00     0.98639E+10
    -0.51583E-03    -0.27037E-02    -0.98644E+10
     0.87376E-01     0.50934E-01    -0.97916E+10
    -0.57357E-01    -0.13181E-01     0.97921E+10
    -0.82211E-01    -0.60415E-02     0.98639E+10
    -0.32256E+00    -0.15179E+00    -0.98644E+10
    -0.37806E+00    -0.12253E+00    -0.97916E+10
 </DataArray>
                            <DataArray type="Float32" Name="Electric_Polarization" NumberOfComponents="3" Format="ascii">
    -0.35437E-04     0.14538E-05     0.21600E+01
    -0.11924E-04     0.49099E-06     0.21600E+01
    -0.13532E-04     0.23185E-05    -0.21600E+01
    -0.35637E-04     0.86911E-06    -0.21600E+01
     0.29355E-05    -0.70063E-06     0.21600E+01
    -0.15417E-05    -0.13062E-05     0.21600E+01
    -0.77841E-06    -0.11402E-05    -0.21600E+01
     0.43686E-05    -0.88042E-07    -0.21600E+01
    -0.12879E-05    -0.10296E-05     0.21600E+01
    -0.27668E-06    -0.13264E-05     0.21600E+01
     0.84373E-06     0.42363E-06    -0.21600E+01
    -0.10091E-05     0.44732E-06    -0.21600E+01
     0.38728E-06    -0.68771E-06     0.21600E+01
     0.18866E-06    -0.72792E-06     0.21600E+01
    -0.10812E-06     0.52484E-06    -0.21600E+01
     0.22100E-06     0.56806E-06    -0.21600E+01
    -0.42774E-06    -0.18107E-07     0.21600E+01
    -0.41404E-06    -0.69606E-07     0.21600E+01
    -0.47439E-07     0.40031E-06    -0.21600E+01
    -0.16736E-06     0.43106E-06    -0.21600E+01
     0.14984E-06    -0.10191E-08     0.21600E+01
     0.21836E-06     0.74461E-07     0.21600E+01
     0.57136E-07     0.18528E-06    -0.21600E+01
     0.94599E-07     0.19578E-06    -0.21600E+01
    -0.47603E-07     0.40806E-07     0.21600E+01
    -0.54663E-07     0.87277E-08     0.21600E+01
    -0.44721E-07     0.24962E-07    -0.21600E+01
    -0.55528E-07     0.37767E-07    -0.21600E+01
    -0.25164E-07     0.36480E-07     0.21600E+01
    -0.36704E-07     0.79924E-08     0.21600E+01
     0.40869E-07    -0.52904E-07    -0.21600E+01
     0.47575E-07    -0.47344E-07    -0.21600E+01
    -0.74411E-08    -0.96287E-07     0.21600E+01
    -0.79555E-08    -0.91887E-07     0.21600E+01
    -0.32001E-07     0.30125E-07    -0.21600E+01
    -0.34129E-07     0.42146E-07    -0.21600E+01
     0.12401E-07    -0.40520E-08     0.21600E+01
     0.13879E-07    -0.11484E-07     0.21600E+01
     0.11313E-07     0.86808E-08    -0.21600E+01
     0.12615E-07     0.12342E-07    -0.21600E+01
    -0.93181E-08    -0.84143E-08     0.21600E+01
    -0.14456E-07    -0.87087E-08     0.21600E+01
    -0.22643E-07     0.78888E-08    -0.21600E+01
    -0.20948E-07     0.67536E-08    -0.21600E+01
     0.24435E-07     0.27943E-07     0.21600E+01
     0.24797E-07     0.31297E-07     0.21600E+01
     0.22149E-07    -0.77294E-08    -0.21600E+01
     0.23618E-07    -0.92191E-08    -0.21600E+01
     0.70544E-09     0.17309E-07     0.21600E+01
     0.37533E-09     0.17588E-07     0.21600E+01
     0.38449E-09    -0.14015E-07    -0.21600E+01
     0.10998E-08    -0.13276E-07    -0.21600E+01
     0.39877E-09     0.54242E-08     0.21600E+01
     0.13485E-08     0.63447E-08     0.21600E+01
    -0.79224E-10    -0.16359E-09    -0.21600E+01
    -0.33392E-08    -0.60502E-10    -0.21600E+01
     0.89172E-08     0.31109E-10     0.21600E+01
     0.86671E-08     0.12369E-08     0.21600E+01
     0.18905E-08     0.20802E-08    -0.21600E+01
     0.19591E-08     0.15073E-08    -0.21600E+01
    -0.23990E-08    -0.45782E-09     0.21600E+01
    -0.22953E-08     0.64070E-09     0.21600E+01
    -0.19765E-08    -0.85807E-09    -0.21600E+01
    -0.21895E-08    -0.12142E-08    -0.21600E+01
    -0.12398E-08     0.15702E-08     0.21600E+01
    -0.82392E-09     0.16522E-08     0.21600E+01
    -0.38713E-09    -0.45080E-09    -0.21600E+01
    -0.54171E-09    -0.30062E-09    -0.21600E+01
     0.21197E-10     0.28194E-10     0.21600E+01
    -0.29792E-09     0.20347E-09     0.21600E+01
    -0.75955E-09     0.15118E-09    -0.21600E+01
    -0.55453E-09     0.24227E-09    -0.21600E+01
     0.32361E-09     0.30471E-09     0.21600E+01
     0.22755E-09     0.24891E-09     0.21600E+01
     0.45237E-09     0.12095E-09    -0.21600E+01
     0.48671E-09     0.12148E-09    -0.21600E+01
     0.48881E-09     0.15457E-09     0.21600E+01
     0.49361E-09     0.12399E-09     0.21600E+01
     0.12102E-09     0.56944E-10    -0.21600E+01
     0.14179E-09     0.24275E-10    -0.21600E+01
    -0.20839E-10     0.15153E-10     0.21600E+01
    -0.37371E-10     0.10662E-10     0.21600E+01
     0.39660E-10    -0.20074E-10    -0.21600E+01
     0.45467E-10    -0.28206E-10    -0.21600E+01
     0.20526E-10     0.23367E-10     0.21600E+01
     0.62885E-11     0.60933E-11     0.21600E+01
    -0.63254E-10    -0.53444E-10    -0.21600E+01
    -0.43429E-10    -0.48991E-10    -0.21600E+01
    -0.26536E-10    -0.76124E-11     0.21600E+01
    -0.26309E-10    -0.20366E-10     0.21600E+01
     0.50655E-10    -0.68751E-10    -0.21600E+01
     0.38054E-10    -0.57831E-10    -0.21600E+01
     0.17043E-10    -0.58947E-11     0.21600E+01
     0.20539E-10     0.55385E-11     0.21600E+01
     0.70182E-11    -0.24770E-10    -0.21600E+01
     0.22084E-10    -0.43875E-10    -0.21600E+01
    -0.23286E-10     0.52142E-11     0.21600E+01
    -0.42482E-10    -0.32776E-11     0.21600E+01
     0.19367E-11     0.22069E-10    -0.21600E+01
     0.38892E-11    -0.63877E-11    -0.21600E+01
     0.38462E-10     0.64947E-11     0.21600E+01
     0.48282E-10     0.27332E-11     0.21600E+01
    -0.63462E-11     0.69839E-13    -0.21600E+01
    -0.71449E-11     0.12348E-10    -0.21600E+01
     0.12816E-10    -0.80095E-11     0.21600E+01
     0.15317E-10    -0.47498E-11     0.21600E+01
     0.14981E-09    -0.32577E-11    -0.21600E+01
     0.13593E-09    -0.47974E-11    -0.21600E+01
    -0.12772E-09    -0.64073E-11     0.21600E+01
    -0.13181E-09    -0.70617E-11     0.21600E+01
    -0.16652E-09    -0.22191E-10    -0.21600E+01
    -0.15543E-09    -0.28917E-10    -0.21600E+01
     0.31575E-10     0.13214E-10     0.21600E+01
     0.36585E-10     0.96113E-11     0.21600E+01
    -0.13337E-10    -0.38006E-10    -0.21600E+01
    -0.16666E-10    -0.94479E-11    -0.21600E+01
     0.67974E-10     0.14590E-10     0.21600E+01
     0.62779E-10     0.16085E-10     0.21600E+01
    -0.65156E-10    -0.36127E-10    -0.21600E+01
    -0.61031E-10    -0.27624E-10    -0.21600E+01
     0.33306E-10    -0.34927E-11     0.21600E+01
     0.36299E-10     0.72222E-11     0.21600E+01
     0.31977E-10     0.23565E-10    -0.21600E+01
     0.36630E-10    -0.24307E-12    -0.21600E+01
    -0.29230E-10    -0.13634E-10     0.21600E+01
    -0.30495E-10    -0.61813E-11     0.21600E+01
     0.64887E-10     0.65405E-10    -0.21600E+01
     0.70586E-10     0.78138E-10    -0.21600E+01
    -0.73966E-13    -0.92556E-11     0.21600E+01
    -0.20195E-11    -0.77754E-11     0.21600E+01
     0.44086E-10     0.27145E-10    -0.21600E+01
     0.28803E-10     0.36278E-10    -0.21600E+01
     0.41568E-10    -0.89549E-11     0.21600E+01
     0.42909E-10    -0.10369E-10     0.21600E+01
    -0.39225E-10     0.23834E-10    -0.21600E+01
    -0.37993E-10     0.22414E-10    -0.21600E+01
     0.45997E-10     0.23359E-11     0.21600E+01
     0.43485E-10    -0.27245E-11     0.21600E+01
     0.13401E-10     0.43020E-10    -0.21600E+01
     0.24303E-10     0.51839E-10    -0.21600E+01
    -0.98255E-10     0.15374E-10     0.21600E+01
    -0.99058E-10     0.61451E-11     0.21600E+01
    -0.75346E-10     0.23232E-10    -0.21600E+01
    -0.89019E-10     0.19688E-10    -0.21600E+01
     0.40293E-10    -0.10707E-10     0.21600E+01
     0.42250E-10    -0.59891E-11     0.21600E+01
     0.44877E-10    -0.38161E-10    -0.21600E+01
     0.61965E-10    -0.38749E-10    -0.21600E+01
     0.12898E-10    -0.14167E-10     0.21600E+01
     0.13038E-10    -0.15739E-10     0.21600E+01
     0.54585E-10    -0.25756E-10    -0.21600E+01
     0.33274E-10    -0.16794E-10    -0.21600E+01
    -0.60343E-10    -0.33963E-11     0.21600E+01
    -0.52917E-10    -0.22300E-10     0.21600E+01
    -0.89047E-13    -0.54883E-12    -0.21600E+01
     0.19251E-10     0.11192E-10    -0.21600E+01
    -0.12630E-10    -0.29015E-11     0.21600E+01
    -0.18025E-10    -0.13289E-11     0.21600E+01
    -0.70747E-10    -0.33237E-10    -0.21600E+01
    -0.83281E-10    -0.27030E-10    -0.21600E+01
 </DataArray>
 </CellData>
 <PointData Scalars="Elec_Pot" Vectors="displacement">
                                         <DataArray type="Float32" Name="Elec_Pot" NumberOfComponents="1" Format="ascii">
  0.000000000000000E+000  0.000000000000000E+000   90677.1008897067     
   90677.1136079015        182000.000000000        182000.000000000     
   90673.6524586014        90673.4627527606       0.000000000000000E+000
  0.000000000000000E+000  0.000000000000000E+000  0.000000000000000E+000
   90666.9718569586        90666.9633513342        182000.000000000     
   182000.000000000        90662.9185323349        90662.8472955782     
  0.000000000000000E+000  0.000000000000000E+000  0.000000000000000E+000
  0.000000000000000E+000   90666.7798869476        90666.7811794503     
   182000.000000000        182000.000000000        90662.7577361445     
   90662.7410830070       0.000000000000000E+000  0.000000000000000E+000
  0.000000000000000E+000  0.000000000000000E+000   90667.1656825730     
   90667.1666175517        182000.000000000        182000.000000000     
   90663.0739965359        90663.0695042627       0.000000000000000E+000
  0.000000000000000E+000  0.000000000000000E+000  0.000000000000000E+000
   90667.2370800032        90667.2368362259        182000.000000000     
   182000.000000000        90663.1139442409        90663.1111613266     
  0.000000000000000E+000  0.000000000000000E+000  0.000000000000000E+000
  0.000000000000000E+000   90667.2593169385        90667.2603238007     
   182000.000000000        182000.000000000        90663.1231421839     
   90663.1237161870       0.000000000000000E+000  0.000000000000000E+000
  0.000000000000000E+000  0.000000000000000E+000   90667.2612318495     
   90667.2614970943        182000.000000000        182000.000000000     
   90663.1232486553        90663.1238569804       0.000000000000000E+000
  0.000000000000000E+000  0.000000000000000E+000  0.000000000000000E+000
   90667.2625586436        90667.2619165644        182000.000000000     
   182000.000000000        90663.1233956593        90663.1233313613     
  0.000000000000000E+000  0.000000000000000E+000  0.000000000000000E+000
  0.000000000000000E+000   90667.2621268041        90667.2620790166     
   182000.000000000        182000.000000000        90663.1233782144     
   90663.1234121622       0.000000000000000E+000  0.000000000000000E+000
  0.000000000000000E+000  0.000000000000000E+000   90667.2620995212     
   90667.2621218498        182000.000000000        182000.000000000     
   90663.1233242008        90663.1232953996       0.000000000000000E+000
  0.000000000000000E+000  0.000000000000000E+000  0.000000000000000E+000
   90667.2621536702        90667.2621717434        182000.000000000     
   182000.000000000        90663.1233906772        90663.1233361543     
  0.000000000000000E+000  0.000000000000000E+000  0.000000000000000E+000
  0.000000000000000E+000   90667.2621786543        90667.2621518364     
   182000.000000000        182000.000000000        90663.1233543865     
   90663.1233522554       0.000000000000000E+000  0.000000000000000E+000
  0.000000000000000E+000  0.000000000000000E+000   90667.2621683296     
   90667.2621591190        182000.000000000        182000.000000000     
   90663.1233564214        90663.1233581427       0.000000000000000E+000
  0.000000000000000E+000  0.000000000000000E+000  0.000000000000000E+000
   90667.2621729383        90667.2621607411        182000.000000000     
   182000.000000000        90663.1233599493        90663.1233598068     
  0.000000000000000E+000  0.000000000000000E+000  0.000000000000000E+000
  0.000000000000000E+000   90667.2621662388        90667.2621645387     
   182000.000000000        182000.000000000        90663.1233573685     
   90663.1233620655       0.000000000000000E+000  0.000000000000000E+000
  0.000000000000000E+000  0.000000000000000E+000   90667.2621642729     
   90667.2621649128        182000.000000000        182000.000000000     
   90663.1233597543        90663.1233603340       0.000000000000000E+000
  0.000000000000000E+000  0.000000000000000E+000  0.000000000000000E+000
   90667.2621644205        90667.2621630032        182000.000000000     
   182000.000000000        90663.1233579978        90663.1233570146     
  0.000000000000000E+000  0.000000000000000E+000  0.000000000000000E+000
  0.000000000000000E+000   90667.2621685653        90667.2621658619     
   182000.000000000        182000.000000000        90663.1233577975     
   90663.1233585845       0.000000000000000E+000  0.000000000000000E+000
  0.000000000000000E+000  0.000000000000000E+000   90667.2621686836     
   90667.2621656025        182000.000000000        182000.000000000     
   90663.1233587449        90663.1233605208       0.000000000000000E+000
  0.000000000000000E+000  0.000000000000000E+000  0.000000000000000E+000
   90667.2621663157        90667.2621673135        182000.000000000     
   182000.000000000        90663.1233583283        90663.1233562940     
  0.000000000000000E+000  0.000000000000000E+000  0.000000000000000E+000
  0.000000000000000E+000   90667.2621648197        90667.2621681589     
   182000.000000000        182000.000000000        90663.1233620961     
   90663.1233582366       0.000000000000000E+000  0.000000000000000E+000
  0.000000000000000E+000  0.000000000000000E+000   90667.2621620845     
   90667.2621661849        182000.000000000        182000.000000000     
   90663.1233574217        90663.1233594566       0.000000000000000E+000
  0.000000000000000E+000  0.000000000000000E+000  0.000000000000000E+000
   90667.2621660540        90667.2621665991        182000.000000000     
   182000.000000000        90663.1233551535        90663.1233594622     
  0.000000000000000E+000  0.000000000000000E+000  0.000000000000000E+000
  0.000000000000000E+000   90667.2621651202        90667.2621633385     
   182000.000000000        182000.000000000        90663.1233588545     
   90663.1233597879       0.000000000000000E+000  0.000000000000000E+000
  0.000000000000000E+000  0.000000000000000E+000   90667.2621670125     
   90667.2621655457        182000.000000000        182000.000000000     
   90663.1233589714        90663.1233596338       0.000000000000000E+000
  0.000000000000000E+000  0.000000000000000E+000  0.000000000000000E+000
   90667.2621646451        90667.2621655051        182000.000000000     
   182000.000000000        90663.1233588779        90663.1233582715     
  0.000000000000000E+000  0.000000000000000E+000  0.000000000000000E+000
  0.000000000000000E+000   90667.2621644067        90667.2621656054     
   182000.000000000        182000.000000000        90663.1233581697     
   90663.1233584815       0.000000000000000E+000  0.000000000000000E+000
  0.000000000000000E+000  0.000000000000000E+000   90667.2621650229     
   90667.2621631614        182000.000000000        182000.000000000     
   90663.1233608155        90663.1233594930       0.000000000000000E+000
  0.000000000000000E+000  0.000000000000000E+000  0.000000000000000E+000
   90667.2621649494        90667.2621640161        182000.000000000     
   182000.000000000        90663.1233593524        90663.1233586085     
  0.000000000000000E+000  0.000000000000000E+000  0.000000000000000E+000
  0.000000000000000E+000   90667.2621628142        90667.2621631845     
   182000.000000000        182000.000000000        90663.1233573631     
   90663.1233599792       0.000000000000000E+000  0.000000000000000E+000
  0.000000000000000E+000  0.000000000000000E+000   90667.2621645889     
   90667.2621652001        182000.000000000        182000.000000000     
   90663.1233592907        90663.1233617731       0.000000000000000E+000
  0.000000000000000E+000  0.000000000000000E+000  0.000000000000000E+000
   90667.2621634120        90667.2621670387        182000.000000000     
   182000.000000000        90663.1233563617        90663.1233618865     
  0.000000000000000E+000  0.000000000000000E+000  0.000000000000000E+000
  0.000000000000000E+000   90667.2621627398        90667.2621654844     
   182000.000000000        182000.000000000        90663.1233578772     
   90663.1233639587       0.000000000000000E+000  0.000000000000000E+000
  0.000000000000000E+000  0.000000000000000E+000   90667.2621653972     
   90667.2621657483        182000.000000000        182000.000000000     
   90663.1233581506        90663.1233618840       0.000000000000000E+000
  0.000000000000000E+000  0.000000000000000E+000  0.000000000000000E+000
   90667.2621630649        90667.2621672867        182000.000000000     
   182000.000000000        90663.1233591858        90663.1233590074     
  0.000000000000000E+000  0.000000000000000E+000  0.000000000000000E+000
  0.000000000000000E+000   90667.2621651271        90667.2621659813     
   182000.000000000        182000.000000000        90663.1233608407     
   90663.1233583269       0.000000000000000E+000  0.000000000000000E+000
  0.000000000000000E+000  0.000000000000000E+000   90667.2621657195     
   90667.2621664137        182000.000000000        182000.000000000     
   90663.1233601240        90663.1233556383       0.000000000000000E+000
  0.000000000000000E+000  0.000000000000000E+000  0.000000000000000E+000
   90667.2621649278        90667.2621641024        182000.000000000     
   182000.000000000        90663.1233582003        90663.1233594807     
  0.000000000000000E+000  0.000000000000000E+000  0.000000000000000E+000
  0.000000000000000E+000   90667.2621651932        90667.2621641160     
   182000.000000000        182000.000000000        90663.1233581716     
   90663.1233591873       0.000000000000000E+000  0.000000000000000E+000
  0.000000000000000E+000  0.000000000000000E+000   90667.2621631641     
   90667.2621648933        182000.000000000        182000.000000000     
   90663.1233557252        90663.1233573380       0.000000000000000E+000
  0.000000000000000E+000  0.000000000000000E+000  0.000000000000000E+000
   90667.2621615719        90667.2621660599        182000.000000000     
   182000.000000000        90663.1233586653        90663.1233576019     
  0.000000000000000E+000  0.000000000000000E+000   45248.9176108288     
   90666.9818932751        45248.9125946059       0.000000000000000E+000
  0.000000000000000E+000   45263.8429065975        90677.0841666847     
   45263.8371366260       0.000000000000000E+000  0.000000000000000E+000
   90671.3464889910        90671.3323743464        136251.306914319     
   182000.000000000        136251.301927441        136250.583467480     
   182000.000000000        136250.574064234        182000.000000000     
   182000.000000000        136248.754213758        90662.8868317992     
   136248.715205381        136248.368335606        90673.5269256717     
   136248.457513176        90667.4511791303        90667.4157845143     
   45245.3155503725       0.000000000000000E+000   45245.2923452264     
   45260.6277510391       0.000000000000000E+000   45260.7539607563     
  0.000000000000000E+000  0.000000000000000E+000   45250.8922489650     
   90666.7814790819        45250.8943362942       0.000000000000000E+000
  0.000000000000000E+000  0.000000000000000E+000   90667.6158811032     
   90667.6190070670        136249.722741556        182000.000000000     
   136249.723003911        182000.000000000        182000.000000000     
   136247.202757828        90662.7488150636        136247.196475777     
   90663.4468057987        90663.4263273696        45247.3403252142     
  0.000000000000000E+000   45247.3284425147       0.000000000000000E+000
  0.000000000000000E+000   45250.6114379532        90667.1665884820     
   45250.6114093828       0.000000000000000E+000  0.000000000000000E+000
  0.000000000000000E+000   90667.7550855775        90667.7532730134     
   136250.236573069        182000.000000000        136250.237378523     
   182000.000000000        182000.000000000        136247.671783794     
   90663.0718990805        136247.669003067        90663.5847849093     
   90663.5758025203        45247.0123070084       0.000000000000000E+000
   45247.0117431905       0.000000000000000E+000  0.000000000000000E+000
   45250.7490302225        90667.2365282900        45250.7490675797     
  0.000000000000000E+000  0.000000000000000E+000  0.000000000000000E+000
   90667.5106716739        90667.5117388950        136250.197611507     
   182000.000000000        136250.197476688        182000.000000000     
   182000.000000000        136247.619686233        90663.1126539878     
   136247.618349844        90663.3635360851        90663.3598734702     
   45247.1363709469       0.000000000000000E+000   45247.1348740531     
  0.000000000000000E+000  0.000000000000000E+000   45250.7372223517     
   90667.2590193587        45250.7378510202       0.000000000000000E+000
  0.000000000000000E+000  0.000000000000000E+000   90667.5189559086     
   90667.5199686963        136250.225937548        182000.000000000     
   136250.226309147        182000.000000000        182000.000000000     
   136247.640407112        90663.1235311095        136247.640687136     
   90663.3794737846        90663.3791762523        45247.1177858019     
  0.000000000000000E+000   45247.1181059985       0.000000000000000E+000
  0.000000000000000E+000   45250.7432758065        90667.2615231991     
   45250.7434995689       0.000000000000000E+000  0.000000000000000E+000
  0.000000000000000E+000   90667.5088701610        90667.5092708626     
   136250.222831896        182000.000000000        136250.223109302     
   182000.000000000        182000.000000000        136247.636893440     
   90663.1233041011        136247.637177698        90663.3720257490     
   90663.3721541780        45247.1229716679       0.000000000000000E+000
   45247.1232108760       0.000000000000000E+000  0.000000000000000E+000