 <VTKFile type="UnstructuredGrid" version="0.1" byte_order="BigEndian">
 <UnstructuredGrid>
 <Piece NumberOfPoints="        1343 " NumberOfCells="         160 ">
 <CellData Vectors="Electric_Field">
                                   <DataArray type="Float32" Name="Electric_Field" NumberOfComponents="3" Format="ascii">
    -0.20985E+06     0.66270E+04     0.14689E+11
    -0.77248E+05     0.81797E+04     0.14795E+11
    -0.62732E+05     0.13431E+05    -0.14796E+11
    -0.20702E+06     0.18981E+05    -0.14688E+11
     0.25593E+05     0.84168E+04     0.14688E+11
    -0.50190E+04     0.61941E+04     0.14796E+11
    -0.88521E+04     0.29840E+04    -0.14797E+11
     0.20277E+05     0.38611E+03    -0.14687E+11
     0.26156E+04     0.17384E+04     0.14688E+11
     0.10209E+05     0.29361E+04     0.14796E+11
     0.11957E+05    -0.22622E+03    -0.14797E+11
     0.79166E+04    -0.13418E+04    -0.14687E+11
     0.10178E+04    -0.12076E+04     0.14688E+11
    -0.10550E+04    -0.59455E+02     0.14796E+11
    -0.12671E+04    -0.98191E+03    -0.14797E+11
     0.81786E+01    -0.42793E+03    -0.14687E+11
    -0.21923E+04     0.94530E+03     0.14688E+11
    -0.18185E+04     0.73292E+03     0.14796E+11
     0.17925E+04     0.33743E+03    -0.14797E+11
     0.13405E+04     0.55340E+03    -0.14687E+11
     0.89466E+03     0.97039E+03     0.14688E+11
     0.88570E+03     0.78635E+03     0.14796E+11
    -0.12851E+04     0.43882E+03    -0.14797E+11
    -0.13343E+04     0.66780E+03    -0.14687E+11
     0.18106E+04     0.11899E+04     0.14688E+11
     0.14683E+04     0.10622E+04     0.14796E+11
    -0.18837E+03    -0.57026E+03    -0.14797E+11
    -0.30429E+03     0.17924E+02    -0.14687E+11
    -0.72902E+03    -0.87494E+01     0.14688E+11
    -0.56957E+03    -0.84621E+02     0.14796E+11
     0.56670E+03     0.24995E+03    -0.14797E+11
     0.76058E+03     0.58458E+03    -0.14687E+11
     0.19981E+03    -0.14483E+03     0.14688E+11
     0.10332E+03    -0.18905E+03     0.14796E+11
     0.13809E+03     0.43606E+03    -0.14797E+11
     0.42114E+02     0.34337E+03    -0.14687E+11
    -0.70887E+02     0.11701E+01     0.14688E+11
    -0.87622E+01     0.52129E+01     0.14796E+11
     0.40202E+02     0.28551E+03    -0.14797E+11
     0.29840E+02     0.22939E+03    -0.14687E+11
    -0.36579E+02     0.59379E+02     0.14688E+11
    -0.78905E+02     0.81292E+02     0.14796E+11
    -0.52063E+02    -0.91233E+02    -0.14797E+11
    -0.50623E+02    -0.93430E+02    -0.14687E+11
     0.82602E+02     0.39263E+02     0.14688E+11
     0.78356E+02     0.24516E+02     0.14796E+11
     0.19915E+02    -0.11050E+03    -0.14797E+11
     0.27313E+02    -0.81096E+02    -0.14687E+11
    -0.37588E+02     0.83447E+00     0.14688E+11
    -0.31549E+02    -0.13321E+02     0.14796E+11
     0.11686E+02     0.17083E+01    -0.14797E+11
     0.43302E+01     0.68367E+01    -0.14687E+11
     0.28058E+02    -0.11234E+02     0.14688E+11
     0.24269E+02    -0.44298E+01     0.14796E+11
    -0.15302E+01     0.22881E+02    -0.14797E+11
    -0.13866E+01     0.13311E+02    -0.14687E+11
     0.67917E+01    -0.93166E+01     0.14688E+11
     0.55586E+01    -0.71155E+01     0.14796E+11
     0.29166E+01     0.82243E+01    -0.14797E+11
     0.35306E+01     0.41412E+01    -0.14687E+11
     0.50805E+01     0.12192E+01     0.14688E+11
     0.45874E+01     0.15173E+01     0.14796E+11
     0.48621E+01    -0.10149E+01    -0.14797E+11
     0.55217E+01    -0.11997E+01    -0.14687E+11
     0.18582E+01    -0.51950E+00     0.14688E+11
     0.13563E+01    -0.51146E+00     0.14796E+11
     0.20267E+00    -0.48872E-01    -0.14797E+11
     0.65726E+00     0.24611E+00    -0.14687E+11
     0.66237E+00    -0.25021E+00     0.14688E+11
     0.24353E+00    -0.59349E-01     0.14796E+11
     0.12165E+01     0.10180E+00    -0.14797E+11
     0.14654E+01     0.57897E-01    -0.14687E+11
     0.84823E+00    -0.86549E-01     0.14688E+11
     0.72054E+00    -0.15186E+00     0.14796E+11
     0.36783E+00    -0.76344E-01    -0.14797E+11
     0.53726E+00    -0.95437E-01    -0.14687E+11
    -0.14663E-01    -0.25608E+00     0.14688E+11
    -0.85931E-01    -0.24310E+00     0.14796E+11
     0.47364E+00    -0.46491E-01    -0.14797E+11
     0.61431E+00     0.12727E-01    -0.14687E+11
     0.28723E+00     0.71427E-01     0.14688E+11
     0.22036E+00     0.11538E-01     0.14796E+11
     0.24253E+00    -0.85809E-02    -0.14797E+11
     0.23785E+00    -0.62346E-03    -0.14687E+11
    -0.58671E-01     0.14774E+00     0.14688E+11
    -0.51748E-02     0.13206E+00     0.14796E+11
    -0.16786E+00    -0.17284E-01    -0.14797E+11
    -0.11804E+00    -0.73722E-01    -0.14687E+11
     0.29962E+00     0.16561E-01     0.14688E+11
     0.14910E+00     0.87592E-02     0.14796E+11
    -0.21333E+00     0.44898E-02    -0.14797E+11
    -0.15455E+00    -0.17468E-01    -0.14687E+11
    -0.54744E-01    -0.25576E-01     0.14688E+11
    -0.44410E-01    -0.61968E-01     0.14796E+11
     0.16920E+00     0.14778E+00    -0.14797E+11
     0.94016E-01     0.21372E+00    -0.14687E+11
    -0.29870E+00    -0.15060E+00     0.14688E+11
    -0.27865E+00    -0.18163E+00     0.14796E+11
    -0.16530E+00     0.99226E-01    -0.14797E+11
    -0.53498E-01     0.11316E+00    -0.14687E+11
     0.48850E+00    -0.31275E+00     0.14688E+11
     0.54769E+00    -0.33858E+00     0.14796E+11
     0.13321E+00    -0.87907E-02    -0.14797E+11
     0.31067E-01    -0.17464E-01    -0.14687E+11
    -0.66335E+00    -0.19648E+00     0.14688E+11
    -0.67818E+00    -0.20059E+00     0.14796E+11
     0.10336E+00    -0.27996E-02    -0.14797E+11
     0.14390E+00    -0.19140E-01    -0.14687E+11
     0.81503E+00    -0.10485E+00     0.14688E+11
     0.81825E+00    -0.25876E-01     0.14796E+11
    -0.38163E-01    -0.53475E-01    -0.14797E+11
    -0.70938E-01    -0.43852E-01    -0.14687E+11
    -0.62937E+00     0.17426E-01     0.14688E+11
    -0.64961E+00     0.80053E-01     0.14796E+11
     0.21872E+00    -0.81612E-01    -0.14797E+11
     0.26038E+00     0.81034E-02    -0.14687E+11
     0.55989E+00    -0.12518E+00     0.14688E+11
     0.53923E+00    -0.12857E+00     0.14796E+11
     0.69861E-01     0.52811E-02    -0.14797E+11
     0.60474E-01     0.23927E-02    -0.14687E+11
    -0.85338E+00    -0.16379E+00     0.14688E+11
    -0.74826E+00    -0.29413E+00     0.14796E+11
    -0.17394E+00     0.92358E-01    -0.14797E+11
    -0.20304E+00     0.10380E+00    -0.14687E+11
     0.91152E-01     0.19989E-01     0.14688E+11
    -0.60225E-01    -0.62007E-01     0.14796E+11
     0.22705E+00     0.12416E+00    -0.14797E+11
     0.27687E+00     0.15703E+00    -0.14687E+11
     0.51838E+00     0.10856E+00     0.14688E+11
     0.56849E+00     0.14690E+00     0.14796E+11
    -0.19885E+00     0.13172E+00    -0.14797E+11
    -0.27664E+00     0.16511E+00    -0.14687E+11
    -0.65854E-01     0.64460E-01     0.14688E+11
    -0.45220E-02     0.74921E-01     0.14796E+11
    -0.16456E+00     0.15616E+00    -0.14797E+11
    -0.13230E+00     0.18029E+00    -0.14687E+11
    -0.56864E-01    -0.11202E+00     0.14688E+11
    -0.14111E+00    -0.14367E+00     0.14796E+11
     0.16668E-01     0.13577E+00    -0.14797E+11
     0.68616E-01     0.10628E+00    -0.14687E+11
    -0.71560E-02     0.48894E-02     0.14688E+11
     0.29983E-01    -0.64605E-02     0.14796E+11
     0.98752E-01     0.11319E+00    -0.14797E+11
     0.19494E-01     0.10118E+00    -0.14687E+11
     0.10135E+00    -0.77540E-01     0.14688E+11
     0.12056E+00    -0.72924E-02     0.14796E+11
    -0.14402E+00    -0.31127E-01    -0.14797E+11
    -0.35329E-01    -0.41891E-01    -0.14687E+11
     0.76225E-01    -0.10292E+00     0.14688E+11
     0.11390E+00    -0.17969E+00     0.14796E+11
     0.25391E-01    -0.72414E-01    -0.14797E+11
    -0.55088E-01    -0.19989E-01    -0.14687E+11
     0.24686E-01     0.11015E+00     0.14688E+11
    -0.49218E-01     0.40770E-01     0.14796E+11
     0.17599E+00     0.98430E-01    -0.14797E+11
     0.15414E+00     0.11512E+00    -0.14687E+11
    -0.40405E+00     0.17128E+00     0.14688E+11
    -0.36524E+00     0.21348E+00     0.14796E+11
    -0.18353E+00     0.10354E+00    -0.14797E+11
    -0.14846E+00     0.67368E-01    -0.14687E+11
 </DataArray>
                            <DataArray type="Float32" Name="Electric_Polarization" NumberOfComponents="3" Format="ascii">
    -0.30833E-04     0.97168E-06     0.21600E+01
    -0.11306E-04     0.11972E-05     0.21600E+01
    -0.91845E-05     0.19641E-05    -0.21600E+01
    -0.30420E-04     0.27885E-05    -0.21600E+01
     0.37617E-05     0.12363E-05     0.21600E+01
    -0.73088E-06     0.90569E-06     0.21600E+01
    -0.12916E-05     0.43633E-06    -0.21600E+01
     0.29813E-05     0.56020E-07    -0.21600E+01
     0.38316E-06     0.25544E-06     0.21600E+01
     0.14919E-05     0.42884E-06     0.21600E+01
     0.17475E-05    -0.32930E-07    -0.21600E+01
     0.11622E-05    -0.19743E-06    -0.21600E+01
     0.14973E-06    -0.17740E-06     0.21600E+01
    -0.15407E-06    -0.88635E-08     0.21600E+01
    -0.18513E-06    -0.14356E-06    -0.21600E+01
     0.13693E-08    -0.62711E-07    -0.21600E+01
    -0.32194E-06     0.13880E-06     0.21600E+01
    -0.26592E-06     0.10721E-06     0.21600E+01
     0.26204E-06     0.49344E-07    -0.21600E+01
     0.19677E-06     0.81298E-07    -0.21600E+01
     0.13140E-06     0.14249E-06     0.21600E+01
     0.12946E-06     0.11501E-06     0.21600E+01
    -0.18787E-06     0.64165E-07    -0.21600E+01
    -0.19596E-06     0.98102E-07    -0.21600E+01
     0.26591E-06     0.17476E-06     0.21600E+01
     0.21470E-06     0.15530E-06     0.21600E+01
    -0.27543E-07    -0.83353E-07    -0.21600E+01
    -0.44705E-07     0.27453E-08    -0.21600E+01
    -0.10709E-06    -0.12565E-08     0.21600E+01
    -0.83271E-07    -0.12384E-07     0.21600E+01
     0.82856E-07     0.36542E-07    -0.21600E+01
     0.11172E-06     0.85916E-07    -0.21600E+01
     0.29353E-07    -0.21268E-07     0.21600E+01
     0.15114E-07    -0.27629E-07     0.21600E+01
     0.20184E-07     0.63733E-07    -0.21600E+01
     0.61676E-08     0.50419E-07    -0.21600E+01
    -0.10411E-07     0.17230E-09     0.21600E+01
    -0.12919E-08     0.76079E-09     0.21600E+01
     0.58744E-08     0.41739E-07    -0.21600E+01
     0.43826E-08     0.33673E-07    -0.21600E+01
    -0.53642E-08     0.87200E-08     0.21600E+01
    -0.11534E-07     0.11880E-07     0.21600E+01
    -0.76105E-08    -0.13336E-07    -0.21600E+01
    -0.74343E-08    -0.13722E-07    -0.21600E+01
     0.12133E-07     0.57681E-08     0.21600E+01
     0.11454E-07     0.35849E-08     0.21600E+01
     0.29109E-08    -0.16153E-07    -0.21600E+01
     0.40131E-08    -0.11904E-07    -0.21600E+01
    -0.55206E-08     0.12451E-09     0.21600E+01
    -0.46127E-08    -0.19465E-08     0.21600E+01
     0.17082E-08     0.24968E-09    -0.21600E+01
     0.63458E-09     0.10051E-08    -0.21600E+01
     0.41209E-08    -0.16498E-08     0.21600E+01
     0.35483E-08    -0.64889E-09     0.21600E+01
    -0.22381E-09     0.33445E-08    -0.21600E+01
    -0.20348E-09     0.19531E-08    -0.21600E+01
     0.99753E-09    -0.13681E-08     0.21600E+01
     0.81271E-09    -0.10408E-08     0.21600E+01
     0.42642E-09     0.12022E-08    -0.21600E+01
     0.51856E-09     0.60740E-09    -0.21600E+01
     0.74623E-09     0.17904E-09     0.21600E+01
     0.67060E-09     0.22174E-09     0.21600E+01
     0.71080E-09    -0.14830E-09    -0.21600E+01
     0.81098E-09    -0.17629E-09    -0.21600E+01
     0.27291E-09    -0.76305E-10     0.21600E+01
     0.19834E-09    -0.74759E-10     0.21600E+01
     0.29646E-10    -0.71325E-11    -0.21600E+01
     0.96598E-10     0.36193E-10    -0.21600E+01
     0.97326E-10    -0.36763E-10     0.21600E+01
     0.35631E-10    -0.86960E-11     0.21600E+01
     0.17785E-09     0.14859E-10    -0.21600E+01
     0.21524E-09     0.85169E-11    -0.21600E+01
     0.12457E-09    -0.12723E-10     0.21600E+01
     0.10536E-09    -0.22174E-10     0.21600E+01
     0.53792E-10    -0.11168E-10    -0.21600E+01
     0.78914E-10    -0.14012E-10    -0.21600E+01
    -0.21551E-11    -0.37617E-10     0.21600E+01
    -0.12546E-10    -0.35531E-10     0.21600E+01
     0.69252E-10    -0.67943E-11    -0.21600E+01
     0.90231E-10     0.18794E-11    -0.21600E+01
     0.42195E-10     0.10495E-10     0.21600E+01
     0.32214E-10     0.16928E-11     0.21600E+01
     0.35460E-10    -0.12630E-11    -0.21600E+01
     0.34924E-10    -0.81055E-13    -0.21600E+01
    -0.86331E-11     0.21693E-10     0.21600E+01
    -0.75020E-12     0.19312E-10     0.21600E+01
    -0.24531E-10    -0.25387E-11    -0.21600E+01
    -0.17332E-10    -0.10826E-10    -0.21600E+01
     0.44020E-10     0.24276E-11     0.21600E+01
     0.21808E-10     0.12866E-11     0.21600E+01
    -0.31182E-10     0.64708E-12    -0.21600E+01
    -0.22688E-10    -0.25604E-11    -0.21600E+01
    -0.80420E-11    -0.37529E-11     0.21600E+01
    -0.64917E-11    -0.90548E-11     0.21600E+01
     0.24725E-10     0.21597E-10    -0.21600E+01
     0.13801E-10     0.31406E-10    -0.21600E+01
    -0.43873E-10    -0.22117E-10     0.21600E+01
    -0.40732E-10    -0.26545E-10     0.21600E+01
    -0.24152E-10     0.14500E-10    -0.21600E+01
    -0.78461E-11     0.16627E-10    -0.21600E+01
     0.71737E-10    -0.45940E-10     0.21600E+01
     0.80057E-10    -0.49480E-10     0.21600E+01
     0.19468E-10    -0.12921E-11    -0.21600E+01
     0.45467E-11    -0.25593E-11    -0.21600E+01
    -0.97415E-10    -0.28861E-10     0.21600E+01
    -0.99141E-10    -0.29317E-10     0.21600E+01
     0.15106E-10    -0.42195E-12    -0.21600E+01
     0.21145E-10    -0.28013E-11    -0.21600E+01
     0.11969E-09    -0.15412E-10     0.21600E+01
     0.11962E-09    -0.37846E-11     0.21600E+01
    -0.55787E-11    -0.78274E-11    -0.21600E+01
    -0.10425E-10    -0.64276E-11    -0.21600E+01
    -0.92419E-10     0.25564E-11     0.21600E+01
    -0.94969E-10     0.11693E-10     0.21600E+01
     0.31979E-10    -0.11929E-10    -0.21600E+01
     0.38240E-10     0.12070E-11    -0.21600E+01
     0.82217E-10    -0.18377E-10     0.21600E+01
     0.78839E-10    -0.18802E-10     0.21600E+01
     0.10215E-10     0.76289E-12    -0.21600E+01
     0.88770E-11     0.36009E-12    -0.21600E+01
    -0.12533E-09    -0.24042E-10     0.21600E+01
    -0.10940E-09    -0.42985E-10     0.21600E+01
    -0.25433E-10     0.13491E-10    -0.21600E+01
    -0.29818E-10     0.15256E-10    -0.21600E+01
     0.13408E-10     0.29431E-11     0.21600E+01
    -0.87956E-11    -0.90560E-11     0.21600E+01
     0.33196E-10     0.18145E-10    -0.21600E+01
     0.40666E-10     0.23073E-10    -0.21600E+01
     0.76110E-10     0.15931E-10     0.21600E+01
     0.83114E-10     0.21480E-10     0.21600E+01
    -0.29080E-10     0.19248E-10    -0.21600E+01
    -0.40631E-10     0.24261E-10    -0.21600E+01
    -0.96716E-11     0.94563E-11     0.21600E+01
    -0.67261E-12     0.10961E-10     0.21600E+01
    -0.24049E-10     0.22819E-10    -0.21600E+01
    -0.19429E-10     0.26491E-10    -0.21600E+01
    -0.83408E-11    -0.16456E-10     0.21600E+01
    -0.20622E-10    -0.20992E-10     0.21600E+01
     0.24390E-11     0.19836E-10    -0.21600E+01
     0.10085E-10     0.15613E-10    -0.21600E+01
    -0.10616E-11     0.71909E-12     0.21600E+01
     0.43864E-11    -0.94324E-12     0.21600E+01
     0.14430E-10     0.16533E-10    -0.21600E+01
     0.28522E-11     0.14870E-10    -0.21600E+01
     0.14886E-10    -0.11396E-10     0.21600E+01
     0.17618E-10    -0.10717E-11     0.21600E+01
    -0.21041E-10    -0.45608E-11    -0.21600E+01
    -0.51784E-11    -0.61434E-11    -0.21600E+01
     0.11187E-10    -0.15119E-10     0.21600E+01
     0.16650E-10    -0.26249E-10     0.21600E+01
     0.36968E-11    -0.10584E-10    -0.21600E+01
    -0.80917E-11    -0.29262E-11    -0.21600E+01
     0.36340E-11     0.16188E-10     0.21600E+01
    -0.71891E-11     0.59618E-11     0.21600E+01
     0.25725E-10     0.14386E-10    -0.21600E+01
     0.22634E-10     0.16912E-10    -0.21600E+01
    -0.59342E-10     0.25147E-10     0.21600E+01
    -0.53397E-10     0.31207E-10     0.21600E+01
    -0.26825E-10     0.15127E-10    -0.21600E+01
    -0.21800E-10     0.98947E-11    -0.21600E+01
 </DataArray>
 </CellData>
 <PointData Scalars="Elec_Pot" Vectors="displacement">
                                         <DataArray type="Float32" Name="Elec_Pot" NumberOfComponents="1" Format="ascii">
  0.000000000000000E+000  0.000000000000000E+000   136017.691960545     
   136017.104416769        273000.000000000        273000.000000000     
   136009.647116417        136009.092750776       0.000000000000000E+000
  0.000000000000000E+000  0.000000000000000E+000  0.000000000000000E+000
   136002.309425705        136002.012499098        273000.000000000     
   273000.000000000        135992.985470703        135993.066973158     
  0.000000000000000E+000  0.000000000000000E+000  0.000000000000000E+000
  0.000000000000000E+000   136001.812584125        136001.796315302     
   273000.000000000        273000.000000000        135992.794124792     
   135992.828891651       0.000000000000000E+000  0.000000000000000E+000
  0.000000000000000E+000  0.000000000000000E+000   136002.442430095     
   136002.454269045        273000.000000000        273000.000000000     
   135993.250949863        135993.255306148       0.000000000000000E+000
  0.000000000000000E+000  0.000000000000000E+000  0.000000000000000E+000
   136002.566575947        136002.573815409        273000.000000000     
   273000.000000000        135993.313675962        135993.305848686     
  0.000000000000000E+000  0.000000000000000E+000  0.000000000000000E+000
  0.000000000000000E+000   136002.612777963        136002.608525884     
   273000.000000000        273000.000000000        135993.316109714     
   135993.317483591       0.000000000000000E+000  0.000000000000000E+000
  0.000000000000000E+000  0.000000000000000E+000   136002.613814768     
   136002.614640453        273000.000000000        273000.000000000     
   135993.316302191        135993.317619537       0.000000000000000E+000
  0.000000000000000E+000  0.000000000000000E+000  0.000000000000000E+000
   136002.615970971        136002.615502145        273000.000000000     
   273000.000000000        135993.315595244        135993.315542531     
  0.000000000000000E+000  0.000000000000000E+000  0.000000000000000E+000
  0.000000000000000E+000   136002.616085578        136002.615987238     
   273000.000000000        273000.000000000        135993.316391086     
   135993.316107224       0.000000000000000E+000  0.000000000000000E+000
  0.000000000000000E+000  0.000000000000000E+000   136002.616543630     
   136002.616637535        273000.000000000        273000.000000000     
   135993.316294771        135993.316171492       0.000000000000000E+000
  0.000000000000000E+000  0.000000000000000E+000  0.000000000000000E+000
   136002.616685128        136002.616694883        273000.000000000     
   273000.000000000        135993.316282846        135993.316323997     
  0.000000000000000E+000  0.000000000000000E+000  0.000000000000000E+000
  0.000000000000000E+000   136002.616722277        136002.616718589     
   273000.000000000        273000.000000000        135993.316308177     
   135993.316342559       0.000000000000000E+000  0.000000000000000E+000
  0.000000000000000E+000  0.000000000000000E+000   136002.616731942     
   136002.616732050        273000.000000000        273000.000000000     
   135993.316359412        135993.316358581       0.000000000000000E+000
  0.000000000000000E+000  0.000000000000000E+000  0.000000000000000E+000
   136002.616748075        136002.616742506        273000.000000000     
   273000.000000000        135993.316368475        135993.316365119     
  0.000000000000000E+000  0.000000000000000E+000  0.000000000000000E+000
  0.000000000000000E+000   136002.616745047        136002.616743012     
   273000.000000000        273000.000000000        135993.316368739     
   135993.316368355       0.000000000000000E+000  0.000000000000000E+000
  0.000000000000000E+000  0.000000000000000E+000   136002.616747354     
   136002.616742634        273000.000000000        273000.000000000     
   135993.316371554        135993.316371506       0.000000000000000E+000
  0.000000000000000E+000  0.000000000000000E+000  0.000000000000000E+000
   136002.616743568        136002.616741958        273000.000000000     
   273000.000000000        135993.316371876        135993.316372394     
  0.000000000000000E+000  0.000000000000000E+000  0.000000000000000E+000
  0.000000000000000E+000   136002.616746010        136002.616742546     
   273000.000000000        273000.000000000        135993.316372492     
   135993.316372689       0.000000000000000E+000  0.000000000000000E+000
  0.000000000000000E+000  0.000000000000000E+000   136002.616752515     
   136002.616744597        273000.000000000        273000.000000000     
   135993.316372499        135993.316370129       0.000000000000000E+000
  0.000000000000000E+000  0.000000000000000E+000  0.000000000000000E+000
   136002.616745070        136002.616742266        273000.000000000     
   273000.000000000        135993.316374649        135993.316369863     
  0.000000000000000E+000  0.000000000000000E+000  0.000000000000000E+000
  0.000000000000000E+000   136002.616745368        136002.616743345     
   273000.000000000        273000.000000000        135993.316374911     
   135993.316369938       0.000000000000000E+000  0.000000000000000E+000
  0.000000000000000E+000  0.000000000000000E+000   136002.616748079     
   136002.616741589        273000.000000000        273000.000000000     
   135993.316374057        135993.316372189       0.000000000000000E+000
  0.000000000000000E+000  0.000000000000000E+000  0.000000000000000E+000
   136002.616743545        136002.616740224        273000.000000000     
   273000.000000000        135993.316373042        135993.316372925     
  0.000000000000000E+000  0.000000000000000E+000  0.000000000000000E+000
  0.000000000000000E+000   136002.616748420        136002.616742398     
   273000.000000000        273000.000000000        135993.316370999     
   135993.316371599       0.000000000000000E+000  0.000000000000000E+000
  0.000000000000000E+000  0.000000000000000E+000   136002.616745138     
   136002.616743317        273000.000000000        273000.000000000     
   135993.316372004        135993.316367825       0.000000000000000E+000
  0.000000000000000E+000  0.000000000000000E+000  0.000000000000000E+000
   136002.616750603        136002.616743424        273000.000000000     
   273000.000000000        135993.316369929        135993.316369319     
  0.000000000000000E+000  0.000000000000000E+000  0.000000000000000E+000
  0.000000000000000E+000   136002.616746880        136002.616745743     
   273000.000000000        273000.000000000        135993.316370956     
   135993.316371358       0.000000000000000E+000  0.000000000000000E+000
  0.000000000000000E+000  0.000000000000000E+000   136002.616748868     
   136002.616743316        273000.000000000        273000.000000000     
   135993.316369677        135993.316372222       0.000000000000000E+000
  0.000000000000000E+000  0.000000000000000E+000  0.000000000000000E+000
   136002.616744029        136002.616741989        273000.000000000     
   273000.000000000        135993.316368831        135993.316371166     
  0.000000000000000E+000  0.000000000000000E+000  0.000000000000000E+000
  0.000000000000000E+000   136002.616745785        136002.616744126     
   273000.000000000        273000.000000000        135993.316375061     
   135993.316370102       0.000000000000000E+000  0.000000000000000E+000
  0.000000000000000E+000  0.000000000000000E+000   136002.616745075     
   136002.616739694        273000.000000000        273000.000000000     
   135993.316371880        135993.316372487       0.000000000000000E+000
  0.000000000000000E+000  0.000000000000000E+000  0.000000000000000E+000
   136002.616748415        136002.616743351        273000.000000000     
   273000.000000000        135993.316372015        135993.316371731     
  0.000000000000000E+000  0.000000000000000E+000  0.000000000000000E+000
  0.000000000000000E+000   136002.616744678        136002.616742486     
   273000.000000000        273000.000000000        135993.316370649     
   135993.316372450       0.000000000000000E+000  0.000000000000000E+000
  0.000000000000000E+000  0.000000000000000E+000   136002.616743784     
   136002.616744782        273000.000000000        273000.000000000     
   135993.316370526        135993.316371004       0.000000000000000E+000
  0.000000000000000E+000  0.000000000000000E+000  0.000000000000000E+000
   136002.616746197        136002.616745692        273000.000000000     
   273000.000000000        135993.316374299        135993.316370994     
  0.000000000000000E+000  0.000000000000000E+000  0.000000000000000E+000
  0.000000000000000E+000   136002.616741814        136002.616745969     
   273000.000000000        273000.000000000        135993.316372659     
   135993.316370399       0.000000000000000E+000  0.000000000000000E+000
  0.000000000000000E+000  0.000000000000000E+000   136002.616741909     
   136002.616746095        273000.000000000        273000.000000000     
   135993.316376443        135993.316371247       0.000000000000000E+000
  0.000000000000000E+000  0.000000000000000E+000  0.000000000000000E+000
   136002.616742975        136002.616744955        273000.000000000     
   273000.000000000        135993.316374149        135993.316369212     
  0.000000000000000E+000  0.000000000000000E+000  0.000000000000000E+000
  0.000000000000000E+000   136002.616740981        136002.616743227     
   273000.000000000        273000.000000000        135993.316372072     
   135993.316368694       0.000000000000000E+000  0.000000000000000E+000
  0.000000000000000E+000  0.000000000000000E+000   136002.616744408     
   136002.616743665        273000.000000000        273000.000000000     
   135993.316372328        135993.316373009       0.000000000000000E+000
  0.000000000000000E+000  0.000000000000000E+000  0.000000000000000E+000
   136002.616744299        136002.616740515        273000.000000000     
   273000.000000000        135993.316369508        135993.316370673     
  0.000000000000000E+000  0.000000000000000E+000   67874.9418718626     
   136002.154336656        67874.8679613914       0.000000000000000E+000
  0.000000000000000E+000   67897.0945590660        136017.169314533     
   67897.4827994001       0.000000000000000E+000  0.000000000000000E+000
   136009.236866312        136009.075611322        204378.200568282     
   273000.000000000        204378.030807923        204376.798308044     
   273000.000000000        204377.151660331        273000.000000000     
   273000.000000000        204372.354734769        135992.980038530     
   204372.387712681        204371.951358345        136009.250419335     
   204372.185555524        136000.350159696        136000.339480268     
   67866.7923935171       0.000000000000000E+000   67866.8639085294     
   67890.0628516147       0.000000000000000E+000   67890.3197555259     
  0.000000000000000E+000  0.000000000000000E+000   67877.8499545114     
   136001.852563417        67877.8412454534       0.000000000000000E+000
  0.000000000000000E+000  0.000000000000000E+000   136003.636726968     
   136003.621112221        204375.684612411        273000.000000000     
   204375.706331697        273000.000000000        273000.000000000     
   204370.063158620        135992.800766119        204370.067537299     
   135994.253449521        135994.263853132        67869.8768178792     
  0.000000000000000E+000   67869.8973970342       0.000000000000000E+000
  0.000000000000000E+000   67877.4558628604        136002.449777615     
   67877.4622060718       0.000000000000000E+000  0.000000000000000E+000
  0.000000000000000E+000   136003.807988529        136003.816994305     
   204376.507770886        273000.000000000        204376.513349107     
   273000.000000000        273000.000000000        204370.744508905     
   135993.256870141        204370.748727294        135994.452154515     
   135994.452859515        67869.3747002420       0.000000000000000E+000
   67869.3775360454       0.000000000000000E+000  0.000000000000000E+000
   67877.6727357213        136002.571227112        67877.6755398129     
  0.000000000000000E+000  0.000000000000000E+000  0.000000000000000E+000
   136003.456331695        136003.449287687        204376.456698145     
   273000.000000000        204376.459012115        273000.000000000     
   273000.000000000        204370.670463848        135993.305695324     
   204370.666247160        135994.134234311        135994.139627683     
   67869.5626050160       0.000000000000000E+000   67869.5585894204     
  0.000000000000000E+000  0.000000000000000E+000   67877.6609276774     
   136002.609490815        67877.6594162000       0.000000000000000E+000
  0.000000000000000E+000  0.000000000000000E+000   136003.463967539     
   136003.457029953        204376.505839944        273000.000000000     
   204376.503264448        273000.000000000        273000.000000000     
   204370.695485142        135993.316504977        204370.695931952     
   135994.164992591        135994.170971708        67869.5282656892     
  0.000000000000000E+000   67869.5297191361       0.000000000000000E+000
  0.000000000000000E+000   67877.6698182475        136002.614530232     
   67877.6698100006       0.000000000000000E+000  0.000000000000000E+000
  0.000000000000000E+000   136003.446357479        136003.445746099     
   204376.500269194        273000.000000000        204376.500762235     
   273000.000000000        273000.000000000        204370.690147478     
   135993.315681096        204370.691071529        135994.158075521     
   135994.158969954        67869.5365209361       0.000000000000000E+000
   67869.5371629766       0.000000000000000E+000  0.000000000000000E+000