 <VTKFile type="UnstructuredGrid" version="0.1" byte_order="BigEndian">
 <UnstructuredGrid>
 <Piece NumberOfPoints="        1343 " NumberOfCells="         160 ">
 <CellData Vectors="Electric_Field">
                                   <DataArray type="Float32" Name="Electric_Field" NumberOfComponents="3" Format="ascii">
    -0.58456E+05     0.18524E+04     0.48962E+10
    -0.85550E+04     0.87011E+03     0.49318E+10
     0.93167E+04     0.26355E+03    -0.49319E+10
    -0.42007E+05     0.30100E+04    -0.48961E+10
     0.57761E+04    -0.32183E+04     0.48960E+10
    -0.56183E+04    -0.27700E+04     0.49320E+10
    -0.97633E+04     0.23353E+03    -0.49321E+10
     0.13907E+04    -0.23564E+04    -0.48959E+10
    -0.23814E+04    -0.24215E+04     0.48960E+10
     0.21381E+03    -0.21115E+04     0.49320E+10
     0.47919E+04    -0.20030E+03    -0.49321E+10
     0.29411E+04    -0.10678E+04    -0.48959E+10
     0.11305E+04    -0.18575E+04     0.48960E+10
     0.59490E+03    -0.18950E+04     0.49320E+10
    -0.23461E+04    -0.37835E+03    -0.49321E+10
    -0.20045E+04    -0.46792E+03    -0.48959E+10
     0.55706E+02     0.20794E+04     0.48960E+10
     0.75787E+02     0.21484E+04     0.49320E+10
    -0.21930E+04    -0.19763E+04    -0.49322E+10
    -0.21532E+04    -0.27944E+04    -0.48958E+10
     0.25433E+03     0.12039E+04     0.48960E+10
     0.14339E+03     0.13044E+04     0.49320E+10
     0.20127E+04    -0.98301E+03    -0.49321E+10
     0.20802E+04    -0.10905E+04    -0.48959E+10
     0.68454E+03     0.14265E+04     0.48960E+10
     0.10360E+04     0.10850E+04     0.49320E+10
     0.95658E+03    -0.15061E+04    -0.49321E+10
     0.90138E+03    -0.11462E+04    -0.48959E+10
    -0.82173E+03     0.36246E+03     0.48960E+10
    -0.99583E+03     0.16912E+03     0.49320E+10
    -0.56117E+03    -0.67909E+03    -0.49321E+10
    -0.46277E+03    -0.68026E+03    -0.48959E+10
     0.21932E+03     0.49316E+03     0.48960E+10
     0.22519E+03     0.66293E+03     0.49320E+10
     0.30115E+03    -0.47285E+03    -0.49321E+10
     0.22464E+03    -0.47798E+03    -0.48959E+10
    -0.24898E+03     0.30436E+03     0.48960E+10
    -0.34679E+03     0.22819E+03     0.49320E+10
    -0.16653E+03     0.22900E+03    -0.49321E+10
    -0.11439E+03     0.26499E+03    -0.48959E+10
    -0.16750E+03     0.24812E+03     0.48960E+10
    -0.51302E+02     0.98760E+02     0.49320E+10
    -0.67551E+02    -0.60632E+01    -0.49321E+10
    -0.17309E+03     0.48127E+02    -0.48959E+10
     0.39178E+02     0.37578E+02     0.48960E+10
    -0.94069E+01     0.15006E+02     0.49320E+10
     0.93561E+02    -0.22862E+03    -0.49321E+10
     0.11226E+03    -0.15146E+03    -0.48959E+10
    -0.42224E+02     0.39513E+03     0.48960E+10
    -0.26158E+02     0.37775E+03     0.49320E+10
     0.54306E+01    -0.33799E+03    -0.49321E+10
     0.34677E+02    -0.29688E+03    -0.48959E+10
     0.12019E+03     0.15866E+03     0.48960E+10
     0.11587E+03     0.14980E+03     0.49320E+10
    -0.32131E+02    -0.20353E+03    -0.49321E+10
    -0.38620E+02    -0.19749E+03    -0.48959E+10
    -0.32533E+02     0.31479E+01     0.48960E+10
    -0.22202E+02     0.49200E+01     0.49320E+10
     0.25966E+02     0.23226E+01    -0.49321E+10
     0.22154E+02     0.56716E+01    -0.48959E+10
     0.15564E+02    -0.56328E+02     0.48960E+10
     0.81692E+01    -0.55183E+02     0.49320E+10
    -0.79688E+01     0.24118E+02    -0.49321E+10
    -0.10154E+02     0.24313E+02    -0.48959E+10
     0.10368E+02    -0.28929E+02     0.48960E+10
     0.13766E+02    -0.23118E+02     0.49320E+10
     0.11373E+02     0.13705E+02    -0.49321E+10
     0.18108E+02     0.16647E+02    -0.48959E+10
    -0.95103E+01    -0.17760E+02     0.48960E+10
    -0.12838E+02    -0.17554E+02     0.49320E+10
    -0.13449E+02    -0.81920E+01    -0.49321E+10
    -0.18659E+02    -0.56110E+01    -0.48959E+10
    -0.16517E+02    -0.88113E+00     0.48960E+10
    -0.15162E+02    -0.14079E+01     0.49320E+10
     0.22817E+01     0.38563E+01    -0.49321E+10
     0.39198E+01     0.20452E+01    -0.48959E+10
    -0.82799E+01    -0.10973E+02     0.48960E+10
    -0.79073E+01    -0.11385E+02     0.49320E+10
    -0.85473E+01     0.17606E+01    -0.49321E+10
    -0.96247E+01    -0.46245E+00    -0.48959E+10
     0.54228E+01    -0.24193E+00     0.48960E+10
     0.54380E+01    -0.41962E+00     0.49320E+10
     0.24277E+01     0.32587E+01    -0.49321E+10
     0.33777E+01     0.36177E+01    -0.48959E+10
     0.11265E+01    -0.76312E-01     0.48960E+10
     0.14305E+01    -0.54482E+00     0.49320E+10
     0.18219E+01     0.44188E+00    -0.49321E+10
     0.13309E+01     0.35805E+00    -0.48959E+10
    -0.70313E+00     0.85462E+00     0.48960E+10
    -0.81622E+00     0.75015E+00     0.49320E+10
    -0.97217E+00    -0.73158E+00    -0.49321E+10
    -0.78452E+00    -0.75259E+00    -0.48959E+10
     0.31324E+00    -0.49668E-01     0.48960E+10
     0.28177E+00    -0.59310E-01     0.49320E+10
     0.56943E+00     0.43344E-01    -0.49321E+10
     0.59296E+00    -0.44028E-01    -0.48959E+10
    -0.97550E-01    -0.17785E+00     0.48960E+10
    -0.49682E-01    -0.10560E+00     0.49320E+10
    -0.12180E+00     0.31871E+00    -0.49321E+10
    -0.21682E+00     0.21212E+00    -0.48959E+10
    -0.10581E+00     0.91507E-01     0.48960E+10
    -0.74092E-01     0.12026E+00     0.49320E+10
     0.13362E+00     0.54518E-01    -0.49321E+10
     0.16411E+00     0.25042E-01    -0.48959E+10
     0.10695E+00    -0.39423E-01     0.48960E+10
     0.81226E-01    -0.31871E-01     0.49320E+10
    -0.19025E-01     0.60765E-02    -0.49321E+10
    -0.14360E-01     0.12182E-04    -0.48959E+10
    -0.10794E+00    -0.13330E-01     0.48960E+10
    -0.10989E+00     0.13221E-03     0.49320E+10
    -0.83079E-01    -0.11040E-01    -0.49321E+10
    -0.82655E-01    -0.28956E-01    -0.48959E+10
    -0.13606E-02    -0.31353E-02     0.48960E+10
     0.10489E-02     0.20609E-01     0.49320E+10
    -0.62164E-02     0.20693E-01    -0.49321E+10
    -0.19463E-02     0.23308E-01    -0.48959E+10
     0.81364E-01     0.16538E-01     0.48960E+10
     0.79834E-01     0.38703E-01     0.49320E+10
     0.65873E-01     0.54306E-01    -0.49321E+10
     0.73209E-01     0.54253E-01    -0.48959E+10
    -0.31489E-01    -0.10154E-01     0.48960E+10
    -0.40175E-01    -0.24014E-01     0.49320E+10
    -0.31764E-01     0.25975E-01    -0.49321E+10
    -0.45074E-01     0.79771E-02    -0.48959E+10
    -0.24593E-01    -0.21790E-01     0.48960E+10
    -0.24402E-01    -0.20616E-01     0.49320E+10
     0.69441E-01     0.14128E-01    -0.49321E+10
     0.78488E-01     0.79715E-02    -0.48959E+10
    -0.59240E-02    -0.30860E-01     0.48960E+10
    -0.26134E-03    -0.94976E-02     0.49320E+10
    -0.39869E-01     0.60586E-02    -0.49321E+10
    -0.47603E-01     0.10624E-01    -0.48959E+10
     0.16033E-01    -0.94278E-02     0.48960E+10
     0.16311E-01     0.10885E-01     0.49320E+10
     0.20182E-01    -0.44728E-02    -0.49321E+10
     0.35845E-01    -0.25617E-02    -0.48959E+10
    -0.28625E-02    -0.15274E-02     0.48960E+10
    -0.85554E-02     0.11557E-01     0.49320E+10
    -0.58008E-02     0.20303E-01    -0.49321E+10
    -0.17171E-01     0.82642E-02    -0.48959E+10
     0.25493E-01     0.91385E-02     0.48960E+10
     0.29060E-01     0.47563E-03     0.49320E+10
    -0.42396E-01     0.56902E-01    -0.49321E+10
    -0.43767E-01     0.37902E-01    -0.48959E+10
     0.19697E-01     0.30899E-01     0.48960E+10
     0.17888E-01     0.32274E-01     0.49320E+10
     0.45677E-01     0.43058E-01    -0.49321E+10
     0.46468E-01     0.34464E-01    -0.48959E+10
    -0.30079E-01    -0.40191E-02     0.48960E+10
    -0.29289E-01     0.19960E-01     0.49320E+10
     0.22642E-01     0.28075E-02    -0.49321E+10
     0.36830E-01    -0.68740E-03    -0.48959E+10
     0.31372E-01     0.15407E-03     0.48960E+10
     0.33719E-01     0.10217E-01     0.49320E+10
    -0.82761E-01    -0.16940E-01    -0.49321E+10
    -0.97914E-01    -0.22233E-01    -0.48959E+10
     0.42685E-01     0.23068E-01     0.48960E+10
     0.25620E-01     0.13199E-01     0.49320E+10
     0.78060E-01    -0.10353E-01    -0.49321E+10
     0.87331E-01    -0.66629E-02    -0.48959E+10
 </DataArray>
                            <DataArray type="Float32" Name="Electric_Polarization" NumberOfComponents="3" Format="ascii">
    -0.25773E-04     0.81814E-06     0.21600E+01
    -0.37639E-05     0.38011E-06     0.21600E+01
     0.40735E-05     0.11551E-06    -0.21600E+01
    -0.18526E-04     0.13277E-05    -0.21600E+01
     0.25491E-05    -0.14177E-05     0.21600E+01
    -0.24614E-05    -0.12153E-05     0.21600E+01
    -0.42787E-05     0.10189E-06    -0.21600E+01
     0.61650E-06    -0.10393E-05    -0.21600E+01
    -0.10501E-05    -0.10668E-05     0.21600E+01
     0.93150E-07    -0.92624E-06     0.21600E+01
     0.21012E-05    -0.87955E-07    -0.21600E+01
     0.12949E-05    -0.47088E-06    -0.21600E+01
     0.49829E-06    -0.81825E-06     0.21600E+01
     0.26099E-06    -0.83114E-06     0.21600E+01
    -0.10288E-05    -0.16600E-06    -0.21600E+01
    -0.88300E-06    -0.20613E-06    -0.21600E+01
     0.24668E-07     0.91611E-06     0.21600E+01
     0.33102E-07     0.94217E-06     0.21600E+01
    -0.96179E-06    -0.86674E-06    -0.21600E+01
    -0.94860E-06    -0.12316E-05    -0.21600E+01
     0.11195E-06     0.53054E-06     0.21600E+01
     0.63050E-07     0.57188E-06     0.21600E+01
     0.88269E-06    -0.43109E-06    -0.21600E+01
     0.91650E-06    -0.48052E-06    -0.21600E+01
     0.30154E-06     0.62851E-06     0.21600E+01
     0.45419E-06     0.47600E-06     0.21600E+01
     0.41952E-06    -0.66056E-06    -0.21600E+01
     0.39708E-06    -0.50474E-06    -0.21600E+01
    -0.36203E-06     0.15975E-06     0.21600E+01
    -0.43662E-06     0.74222E-07     0.21600E+01
    -0.24609E-06    -0.29786E-06    -0.21600E+01
    -0.20383E-06    -0.29967E-06    -0.21600E+01
     0.96628E-07     0.21728E-06     0.21600E+01
     0.98753E-07     0.29063E-06     0.21600E+01
     0.13205E-06    -0.20739E-06    -0.21600E+01
     0.98944E-07    -0.21057E-06    -0.21600E+01
    -0.10968E-06     0.13415E-06     0.21600E+01
    -0.15205E-06     0.10006E-06     0.21600E+01
    -0.73021E-07     0.10045E-06    -0.21600E+01
    -0.50375E-07     0.11675E-06    -0.21600E+01
    -0.73806E-07     0.10936E-06     0.21600E+01
    -0.22560E-07     0.43356E-07     0.21600E+01
    -0.29637E-07    -0.26623E-08    -0.21600E+01
    -0.76312E-07     0.21240E-07    -0.21600E+01
     0.17256E-07     0.16577E-07     0.21600E+01
    -0.40920E-08     0.65739E-08     0.21600E+01
     0.41030E-07    -0.10026E-06    -0.21600E+01
     0.49473E-07    -0.66683E-07    -0.21600E+01
    -0.18617E-07     0.17408E-06     0.21600E+01
    -0.11467E-07     0.16568E-06     0.21600E+01
     0.23838E-08    -0.14823E-06    -0.21600E+01
     0.15294E-07    -0.13077E-06    -0.21600E+01
     0.52961E-07     0.69891E-07     0.21600E+01
     0.50810E-07     0.65712E-07     0.21600E+01
    -0.14089E-07    -0.89270E-07    -0.21600E+01
    -0.17021E-07    -0.86997E-07    -0.21600E+01
    -0.14338E-07     0.13892E-08     0.21600E+01
    -0.97385E-08     0.21543E-08     0.21600E+01
     0.11387E-07     0.10148E-08    -0.21600E+01
     0.97590E-08     0.25047E-08    -0.21600E+01
     0.68557E-08    -0.24814E-07     0.21600E+01
     0.35882E-08    -0.24204E-07     0.21600E+01
    -0.34949E-08     0.10579E-07    -0.21600E+01
    -0.44748E-08     0.10710E-07    -0.21600E+01
     0.45687E-08    -0.12746E-07     0.21600E+01
     0.60345E-08    -0.10141E-07     0.21600E+01
     0.49886E-08     0.60128E-08    -0.21600E+01
     0.79810E-08     0.73333E-08    -0.21600E+01
    -0.41890E-08    -0.78244E-08     0.21600E+01
    -0.56290E-08    -0.76988E-08     0.21600E+01
    -0.58998E-08    -0.35915E-08    -0.21600E+01
    -0.82222E-08    -0.24716E-08    -0.21600E+01
    -0.72773E-08    -0.38804E-09     0.21600E+01
    -0.66501E-08    -0.61727E-09     0.21600E+01
     0.10012E-08     0.16913E-08    -0.21600E+01
     0.17274E-08     0.89985E-09    -0.21600E+01
    -0.36473E-08    -0.48345E-08     0.21600E+01
    -0.34686E-08    -0.49927E-08     0.21600E+01
    -0.37488E-08     0.77188E-09    -0.21600E+01
    -0.42407E-08    -0.20486E-09    -0.21600E+01
     0.23892E-08    -0.10661E-09     0.21600E+01
     0.23848E-08    -0.18390E-09     0.21600E+01
     0.10650E-08     0.14292E-08    -0.21600E+01
     0.14884E-08     0.15939E-08    -0.21600E+01
     0.49618E-09    -0.33513E-10     0.21600E+01
     0.62729E-09    -0.23876E-09     0.21600E+01
     0.79893E-09     0.19392E-09    -0.21600E+01
     0.58615E-09     0.15757E-09    -0.21600E+01
    -0.30985E-09     0.37655E-09     0.21600E+01
    -0.35782E-09     0.32902E-09     0.21600E+01
    -0.42636E-09    -0.32085E-09    -0.21600E+01
    -0.34551E-09    -0.33157E-09    -0.21600E+01
     0.13797E-09    -0.21809E-10     0.21600E+01
     0.12362E-09    -0.26078E-10     0.21600E+01
     0.24974E-09     0.19022E-10    -0.21600E+01
     0.26124E-09    -0.19465E-10    -0.21600E+01
    -0.42997E-10    -0.78312E-10     0.21600E+01
    -0.21798E-10    -0.46397E-10     0.21600E+01
    -0.53427E-10     0.13976E-09    -0.21600E+01
    -0.95573E-10     0.93404E-10    -0.21600E+01
    -0.46602E-10     0.40287E-10     0.21600E+01
    -0.32530E-10     0.52750E-10     0.21600E+01
     0.58609E-10     0.23908E-10    -0.21600E+01
     0.72313E-10     0.11015E-10    -0.21600E+01
     0.47122E-10    -0.17378E-10     0.21600E+01
     0.35634E-10    -0.13973E-10     0.21600E+01
    -0.83393E-11     0.26726E-11    -0.21600E+01
    -0.63281E-11    -0.61887E-14    -0.21600E+01
    -0.47551E-10    -0.58764E-11     0.21600E+01
    -0.48194E-10     0.53559E-13     0.21600E+01
    -0.36441E-10    -0.48439E-11    -0.21600E+01
    -0.36409E-10    -0.12766E-10    -0.21600E+01
    -0.60603E-12    -0.13978E-11     0.21600E+01
     0.46507E-12     0.90403E-11     0.21600E+01
    -0.27222E-11     0.90740E-11    -0.21600E+01
    -0.85894E-12     0.10271E-10    -0.21600E+01
     0.35847E-10     0.72706E-11     0.21600E+01
     0.35013E-10     0.16976E-10     0.21600E+01
     0.28891E-10     0.23817E-10    -0.21600E+01
     0.32257E-10     0.23901E-10    -0.21600E+01
    -0.13871E-10    -0.44827E-11     0.21600E+01
    -0.17616E-10    -0.10514E-10     0.21600E+01
    -0.13934E-10     0.11389E-10    -0.21600E+01
    -0.19863E-10     0.35062E-11    -0.21600E+01
    -0.10834E-10    -0.96090E-11     0.21600E+01
    -0.10702E-10    -0.90329E-11     0.21600E+01
     0.30456E-10     0.61940E-11    -0.21600E+01
     0.34582E-10     0.35101E-11    -0.21600E+01
    -0.26095E-11    -0.13609E-10     0.21600E+01
    -0.11849E-12    -0.41658E-11     0.21600E+01
    -0.17487E-10     0.26586E-11    -0.21600E+01
    -0.20975E-10     0.46821E-11    -0.21600E+01
     0.70625E-11    -0.41653E-11     0.21600E+01
     0.71543E-11     0.47730E-11     0.21600E+01
     0.88555E-11    -0.19588E-11    -0.21600E+01
     0.15797E-10    -0.11303E-11    -0.21600E+01
    -0.12600E-11    -0.68748E-12     0.21600E+01
    -0.37497E-11     0.50749E-11     0.21600E+01
    -0.25474E-11     0.89018E-11    -0.21600E+01
    -0.75686E-11     0.36358E-11    -0.21600E+01
     0.11231E-10     0.40153E-11     0.21600E+01
     0.12743E-10     0.22457E-12     0.21600E+01
    -0.18596E-10     0.24949E-10    -0.21600E+01
    -0.19281E-10     0.16693E-10    -0.21600E+01
     0.86765E-11     0.13606E-10     0.21600E+01
     0.78473E-11     0.14160E-10     0.21600E+01
     0.20037E-10     0.18881E-10    -0.21600E+01
     0.20468E-10     0.15181E-10    -0.21600E+01
    -0.13249E-10    -0.17858E-11     0.21600E+01
    -0.12848E-10     0.87540E-11     0.21600E+01
     0.99305E-11     0.12298E-11    -0.21600E+01
     0.16234E-10    -0.30357E-12    -0.21600E+01
     0.13821E-10     0.55692E-13     0.21600E+01
     0.14787E-10     0.44869E-11     0.21600E+01
    -0.36299E-10    -0.74307E-11    -0.21600E+01
    -0.43144E-10    -0.97968E-11    -0.21600E+01
     0.18809E-10     0.10164E-10     0.21600E+01
     0.11243E-10     0.57940E-11     0.21600E+01
     0.34236E-10    -0.45379E-11    -0.21600E+01
     0.38478E-10    -0.29358E-11    -0.21600E+01
 </DataArray>
 </CellData>
 <PointData Scalars="Elec_Pot" Vectors="displacement">
                                         <DataArray type="Float32" Name="Elec_Pot" NumberOfComponents="1" Format="ascii">
  0.000000000000000E+000  0.000000000000000E+000   45338.0635505443     
   45338.0522808883        91000.0000000000        91000.0000000000     
   45337.2122088762        45337.1773766776       0.000000000000000E+000
  0.000000000000000E+000  0.000000000000000E+000  0.000000000000000E+000
   45332.9443508001        45332.9398282958        91000.0000000000     
   91000.0000000000        45331.9162343573        45331.9229559491     
  0.000000000000000E+000  0.000000000000000E+000  0.000000000000000E+000
  0.000000000000000E+000   45332.8490781463        45332.8494422578     
   91000.0000000000        91000.0000000000        45331.8425782965     
   45331.8417803703       0.000000000000000E+000  0.000000000000000E+000
  0.000000000000000E+000  0.000000000000000E+000   45333.0371282597     
   45333.0358516490        91000.0000000000        91000.0000000000     
   45332.0111099357        45332.0111250946       0.000000000000000E+000
  0.000000000000000E+000  0.000000000000000E+000  0.000000000000000E+000
   45333.0679220753        45333.0671995575        91000.0000000000     
   91000.0000000000        45332.0358447945        45332.0356264978     
  0.000000000000000E+000  0.000000000000000E+000  0.000000000000000E+000
  0.000000000000000E+000   45333.0768369143        45333.0771111027     
   91000.0000000000        91000.0000000000        45332.0426129266     
   45332.0425663351       0.000000000000000E+000  0.000000000000000E+000
  0.000000000000000E+000  0.000000000000000E+000   45333.0780219837     
   45333.0779660205        91000.0000000000        91000.0000000000     
   45332.0429809164        45332.0427357852       0.000000000000000E+000
  0.000000000000000E+000  0.000000000000000E+000  0.000000000000000E+000
   45333.0784473605        45333.0783121730        91000.0000000000     
   91000.0000000000        45332.0428492905        45332.0426866654     
  0.000000000000000E+000  0.000000000000000E+000  0.000000000000000E+000
  0.000000000000000E+000   45333.0783791267        45333.0783978241     
   91000.0000000000        91000.0000000000        45332.0428777037     
   45332.0429759491       0.000000000000000E+000  0.000000000000000E+000
  0.000000000000000E+000  0.000000000000000E+000   45333.0784662535     
   45333.0784273573        91000.0000000000        91000.0000000000     
   45332.0429055584        45332.0428935282       0.000000000000000E+000
  0.000000000000000E+000  0.000000000000000E+000  0.000000000000000E+000
   45333.0784482466        45333.0783880131        91000.0000000000     
   91000.0000000000        45332.0428828848        45332.0429284345     
  0.000000000000000E+000  0.000000000000000E+000  0.000000000000000E+000
  0.000000000000000E+000   45333.0783956907        45333.0784036004     
   91000.0000000000        91000.0000000000        45332.0428957967     
   45332.0429064900       0.000000000000000E+000  0.000000000000000E+000
  0.000000000000000E+000  0.000000000000000E+000   45333.0784016651     
   45333.0784089854        91000.0000000000        91000.0000000000     
   45332.0428951750        45332.0429005040       0.000000000000000E+000
  0.000000000000000E+000  0.000000000000000E+000  0.000000000000000E+000
   45333.0784014705        45333.0784047767        91000.0000000000     
   91000.0000000000        45332.0428967797        45332.0429000144     
  0.000000000000000E+000  0.000000000000000E+000  0.000000000000000E+000
  0.000000000000000E+000   45333.0784043751        45333.0784047171     
   91000.0000000000        91000.0000000000        45332.0429002394     
   45332.0429002434       0.000000000000000E+000  0.000000000000000E+000
  0.000000000000000E+000  0.000000000000000E+000   45333.0784017709     
   45333.0784017757        91000.0000000000        91000.0000000000     
   45332.0428993348        45332.0428994772       0.000000000000000E+000
  0.000000000000000E+000  0.000000000000000E+000  0.000000000000000E+000
   45333.0784026656        45333.0784035976        91000.0000000000     
   91000.0000000000        45332.0429000144        45332.0429001674     
  0.000000000000000E+000  0.000000000000000E+000  0.000000000000000E+000
  0.000000000000000E+000   45333.0784027923        45333.0784036050     
   91000.0000000000        91000.0000000000        45332.0429001868     
   45332.0429002268       0.000000000000000E+000  0.000000000000000E+000
  0.000000000000000E+000  0.000000000000000E+000   45333.0784029829     
   45333.0784027888        91000.0000000000        91000.0000000000     
   45332.0429000257        45332.0429001597       0.000000000000000E+000
  0.000000000000000E+000  0.000000000000000E+000  0.000000000000000E+000
   45333.0784030000        45333.0784027980        91000.0000000000     
   91000.0000000000        45332.0429001123        45332.0429000740     
  0.000000000000000E+000  0.000000000000000E+000  0.000000000000000E+000
  0.000000000000000E+000   45333.0784028736        45333.0784030012     
   91000.0000000000        91000.0000000000        45332.0429001108     
   45332.0429001777       0.000000000000000E+000  0.000000000000000E+000
  0.000000000000000E+000  0.000000000000000E+000   45333.0784028819     
   45333.0784029846        91000.0000000000        91000.0000000000     
   45332.0429000684        45332.0429000254       0.000000000000000E+000
  0.000000000000000E+000  0.000000000000000E+000  0.000000000000000E+000
   45333.0784030108        45333.0784029739        91000.0000000000     
   91000.0000000000        45332.0429001268        45332.0429000812     
  0.000000000000000E+000  0.000000000000000E+000  0.000000000000000E+000
  0.000000000000000E+000   45333.0784028619        45333.0784031073     
   91000.0000000000        91000.0000000000        45332.0429002251     
   45332.0429001095       0.000000000000000E+000  0.000000000000000E+000
  0.000000000000000E+000  0.000000000000000E+000   45333.0784030011     
   45333.0784029626        91000.0000000000        91000.0000000000     
   45332.0429002509        45332.0429000979       0.000000000000000E+000
  0.000000000000000E+000  0.000000000000000E+000  0.000000000000000E+000
   45333.0784030523        45333.0784028843        91000.0000000000     
   91000.0000000000        45332.0429002340        45332.0429001493     
  0.000000000000000E+000  0.000000000000000E+000  0.000000000000000E+000
  0.000000000000000E+000   45333.0784031364        45333.0784027495     
   91000.0000000000        91000.0000000000        45332.0429001553     
   45332.0429001230       0.000000000000000E+000  0.000000000000000E+000
  0.000000000000000E+000  0.000000000000000E+000   45333.0784030437     
   45333.0784029383        91000.0000000000        91000.0000000000     
   45332.0429002051        45332.0429001802       0.000000000000000E+000
  0.000000000000000E+000  0.000000000000000E+000  0.000000000000000E+000
   45333.0784028574        45333.0784029118        91000.0000000000     
   91000.0000000000        45332.0429001785        45332.0429001753     
  0.000000000000000E+000  0.000000000000000E+000  0.000000000000000E+000
  0.000000000000000E+000   45333.0784029923        45333.0784030592     
   91000.0000000000        91000.0000000000        45332.0429000434     
   45332.0429001365       0.000000000000000E+000  0.000000000000000E+000
  0.000000000000000E+000  0.000000000000000E+000   45333.0784030790     
   45333.0784029587        91000.0000000000        91000.0000000000     
   45332.0429000974        45332.0429001687       0.000000000000000E+000
  0.000000000000000E+000  0.000000000000000E+000  0.000000000000000E+000
   45333.0784032738        45333.0784028925        91000.0000000000     
   91000.0000000000        45332.0429001906        45332.0429001646     
  0.000000000000000E+000  0.000000000000000E+000  0.000000000000000E+000
  0.000000000000000E+000   45333.0784030114        45333.0784028066     
   91000.0000000000        91000.0000000000        45332.0429001321     
   45332.0429001581       0.000000000000000E+000  0.000000000000000E+000
  0.000000000000000E+000  0.000000000000000E+000   45333.0784030413     
   45333.0784028744        91000.0000000000        91000.0000000000     
   45332.0429001522        45332.0429001084       0.000000000000000E+000
  0.000000000000000E+000  0.000000000000000E+000  0.000000000000000E+000
   45333.0784029737        45333.0784027455        91000.0000000000     
   91000.0000000000        45332.0429001467        45332.0429001845     
  0.000000000000000E+000  0.000000000000000E+000  0.000000000000000E+000
  0.000000000000000E+000   45333.0784028830        45333.0784029217     
   91000.0000000000        91000.0000000000        45332.0429001026     
   45332.0429001677       0.000000000000000E+000  0.000000000000000E+000
  0.000000000000000E+000  0.000000000000000E+000   45333.0784029234     
   45333.0784029339        91000.0000000000        91000.0000000000     
   45332.0429001248        45332.0429001551       0.000000000000000E+000
  0.000000000000000E+000  0.000000000000000E+000  0.000000000000000E+000
   45333.0784028464        45333.0784027716        91000.0000000000     
   91000.0000000000        45332.0429001818        45332.0429001338     
  0.000000000000000E+000  0.000000000000000E+000  0.000000000000000E+000
  0.000000000000000E+000   45333.0784030141        45333.0784028810     
   91000.0000000000        91000.0000000000        45332.0429001211     
   45332.0429001863       0.000000000000000E+000  0.000000000000000E+000
  0.000000000000000E+000  0.000000000000000E+000   45333.0784030047     
   45333.0784028424        91000.0000000000        91000.0000000000     
   45332.0429001997        45332.0429002085       0.000000000000000E+000
  0.000000000000000E+000  0.000000000000000E+000  0.000000000000000E+000
   45333.0784030741        45333.0784028847        91000.0000000000     
   91000.0000000000        45332.0429001660        45332.0429001357     
  0.000000000000000E+000  0.000000000000000E+000   22623.9702573014     
   45332.9450028161        22623.9684640749       0.000000000000000E+000
  0.000000000000000E+000   22631.4666041448        45338.0565053565     
   22631.4754897377       0.000000000000000E+000  0.000000000000000E+000
   45335.0559121978        45335.0513054237        68125.2933740444     
   91000.0000000000        68125.2912338453        68124.9714170720     
   91000.0000000000        68124.9771467891        91000.0000000000     
   91000.0000000000        68124.6477005609        45331.9213336268     
   68124.6509943383        68124.4363603430        45337.1658558943     
   68124.4533551188        45334.0838279849        45334.0812540741     
   22623.0629425969       0.000000000000000E+000   22623.0687558734     
   22630.6837469153       0.000000000000000E+000   22630.7075406491     
  0.000000000000000E+000  0.000000000000000E+000   22624.9598191309     
   45332.8496736474        22624.9598925576       0.000000000000000E+000
  0.000000000000000E+000  0.000000000000000E+000   45333.1603587404     
   45333.1571315541        68124.5050233137        91000.0000000000     
   68124.5053968390        91000.0000000000        91000.0000000000     
   68123.8748024419        45331.8416741733        68123.8746241236     
   45332.1108702785        45332.1121911557        22624.0706629285     
  0.000000000000000E+000   22624.0694485085       0.000000000000000E+000
  0.000000000000000E+000   22624.8158103249        45333.0363186770     
   22624.8153021687       0.000000000000000E+000  0.000000000000000E+000
  0.000000000000000E+000   45333.2283281474        45333.2286806661     
   68124.7579962183        91000.0000000000        68124.7575470865     
   91000.0000000000        91000.0000000000        68124.1151202001     
   45332.0116723326        68124.1150462996        45332.1830232301     
   45332.1836006703        22623.9143800685       0.000000000000000E+000
   22623.9144812038       0.000000000000000E+000  0.000000000000000E+000
   22624.8824971253        45333.0676493039        22624.8819737818     
  0.000000000000000E+000  0.000000000000000E+000  0.000000000000000E+000
   45333.1087647676        45333.1080489822        68124.7365151002     
   91000.0000000000        68124.7360402732        91000.0000000000     
   91000.0000000000        68124.0912201856        45332.0356719827     
   68124.0911354879        45332.0701052285        45332.0693758429     
   22623.9782540312       0.000000000000000E+000   22623.9780224508     
  0.000000000000000E+000  0.000000000000000E+000   22624.8754131303     
   45333.0772841459        22624.8755466213       0.000000000000000E+000
  0.000000000000000E+000  0.000000000000000E+000   45333.1136563277     
   45333.1137104944        68124.7494126291        91000.0000000000     
   68124.7495025084        91000.0000000000        91000.0000000000     
   68124.1027745207        45332.0424964592        68124.1027705261     
   45332.0777842487        45332.0778365293        22623.9700470807     
  0.000000000000000E+000   22623.9700141779       0.000000000000000E+000
  0.000000000000000E+000   22624.8785216498        45333.0781340038     
   22624.8784946520       0.000000000000000E+000  0.000000000000000E+000
  0.000000000000000E+000   45333.1089839071        45333.1088162954     
   68124.7480682986        91000.0000000000        68124.7480333800     
   91000.0000000000        91000.0000000000        68124.1011400563     
   45332.0427758853        68124.1010103629        45332.0734714415     
   45332.0738088088        22623.9727175628       0.000000000000000E+000
   22623.9726064853       0.000000000000000E+000  0.000000000000000E+000